<?xml version="1.0" ?> 
<!-- 
# vtk DataFile Version 3.0
-->
<VTKFile type="UnstructuredGrid" version="0.1" compressor="vtkZLibDataCompressor" byte_order="LittleEndian">
  <UnstructuredGrid>
    <FieldData>
      <DataArray type="Float64" Name="TIME" NumberOfTuples="1" format="ascii">
3
      </DataArray>
    </FieldData>

    <Piece NumberOfPoints="153" NumberOfCells="0" >
      <Points>
        <DataArray type="Float64" NumberOfComponents="3" format="ascii">
8.722604189151506e-01 4.890416762415440e-01 1.000000000000375e+00
1.000000000000000e+00 0.000000000000000e+00 1.000000000000375e+00
1.000000000000000e+00 0.000000000000000e+00 1.500000000000000e+00
8.722604189151504e-01 4.890416762415440e-01 1.500000000000000e+00
9.697620891119340e-01 2.440522288860948e-01 1.000000000000375e+00
1.000000000000000e+00 0.000000000000000e+00 1.250000000000094e+00
9.697620891119342e-01 2.440522288860949e-01 1.500000000000000e+00
8.722604189151507e-01 4.890416762415442e-01 1.250000000000094e+00
9.697620891119341e-01 2.440522288860949e-01 1.250000000000094e+00
4.890416762415440e-01 8.722604189151505e-01 1.000000000000375e+00
8.722604189151506e-01 4.890416762415440e-01 1.000000000000375e+00
8.722604189151504e-01 4.890416762415440e-01 1.500000000000000e+00
4.890416762415440e-01 8.722604189151504e-01 1.500000000000000e+00
7.071067809042735e-01 7.071067809042736e-01 1.000000000000375e+00
8.722604189151507e-01 4.890416762415442e-01 1.250000000000094e+00
7.071067809042735e-01 7.071067809042735e-01 1.500000000000000e+00
4.890416762415440e-01 8.722604189151505e-01 1.250000000000094e+00
7.071067809042737e-01 7.071067809042736e-01 1.250000000000094e+00
0.000000000000000e+00 1.000000000000000e+00 1.000000000000375e+00
4.890416762415440e-01 8.722604189151505e-01 1.000000000000375e+00
4.890416762415440e-01 8.722604189151504e-01 1.500000000000000e+00
0.000000000000000e+00 1.000000000000000e+00 1.500000000000000e+00
2.440522288860949e-01 9.697620891119340e-01 1.000000000000375e+00
4.890416762415440e-01 8.722604189151505e-01 1.250000000000094e+00
2.440522288860949e-01 9.697620891119340e-01 1.500000000000000e+00
0.000000000000000e+00 1.000000000000000e+00 1.250000000000094e+00
2.440522288860949e-01 9.697620891119341e-01 1.250000000000094e+00
8.722604189151506e-01 4.890416762415440e-01 4.999999999996250e-01
1.000000000000000e+00 0.000000000000000e+00 4.999999999996251e-01
1.000000000000000e+00 0.000000000000000e+00 1.000000000000375e+00
8.722604189151506e-01 4.890416762415440e-01 1.000000000000375e+00
9.697620891119340e-01 2.440522288860949e-01 4.999999999996250e-01
1.000000000000000e+00 0.000000000000000e+00 7.500000000000000e-01
9.697620891119340e-01 2.440522288860948e-01 1.000000000000375e+00
8.722604189151506e-01 4.890416762415441e-01 7.500000000000001e-01
9.697620891119342e-01 2.440522288860949e-01 7.500000000000000e-01
4.890416762415442e-01 8.722604189151506e-01 4.999999999996251e-01
8.722604189151506e-01 4.890416762415440e-01 4.999999999996250e-01
8.722604189151506e-01 4.890416762415440e-01 1.000000000000375e+00
4.890416762415440e-01 8.722604189151505e-01 1.000000000000375e+00
7.071067809042734e-01 7.071067809042736e-01 4.999999999996250e-01
8.722604189151506e-01 4.890416762415441e-01 7.500000000000001e-01
7.071067809042735e-01 7.071067809042736e-01 1.000000000000375e+00
4.890416762415440e-01 8.722604189151503e-01 7.499999999999998e-01
7.071067809042734e-01 7.071067809042736e-01 7.499999999999997e-01
0.000000000000000e+00 1.000000000000000e+00 0.000000000000000e+00
4.890416762415440e-01 8.722604189151504e-01 0.000000000000000e+00
4.890416762415442e-01 8.722604189151506e-01 4.999999999996251e-01
0.000000000000000e+00 1.000000000000000e+00 4.999999999996251e-01
2.440522288860949e-01 9.697620891119340e-01 0.000000000000000e+00
4.890416762415440e-01 8.722604189151503e-01 2.499999999999062e-01
2.440522288860949e-01 9.697620891119340e-01 4.999999999996250e-01
0.000000000000000e+00 1.000000000000000e+00 2.499999999999063e-01
2.440522288860949e-01 9.697620891119340e-01 2.499999999999062e-01
4.890416762415440e-01 8.722604189151504e-01 0.000000000000000e+00
8.722604189151504e-01 4.890416762415440e-01 0.000000000000000e+00
8.722604189151506e-01 4.890416762415440e-01 4.999999999996250e-01
4.890416762415442e-01 8.722604189151506e-01 4.999999999996251e-01
7.071067809042735e-01 7.071067809042735e-01 0.000000000000000e+00
8.722604189151505e-01 4.890416762415440e-01 2.499999999999062e-01
7.071067809042734e-01 7.071067809042736e-01 4.999999999996250e-01
4.890416762415440e-01 8.722604189151503e-01 2.499999999999062e-01
7.071067809042734e-01 7.071067809042735e-01 2.499999999999062e-01
8.722604189151504e-01 4.890416762415440e-01 0.000000000000000e+00
1.000000000000000e+00 0.000000000000000e+00 0.000000000000000e+00
1.000000000000000e+00 0.000000000000000e+00 4.999999999996251e-01
8.722604189151506e-01 4.890416762415440e-01 4.999999999996250e-01
9.697620891119342e-01 2.440522288860949e-01 0.000000000000000e+00
1.000000000000000e+00 0.000000000000000e+00 2.499999999999063e-01
9.697620891119340e-01 2.440522288860949e-01 4.999999999996250e-01
8.722604189151505e-01 4.890416762415440e-01 2.499999999999062e-01
9.697620891119341e-01 2.440522288860949e-01 2.499999999999063e-01
0.000000000000000e+00 1.000000000000000e+00 4.999999999996251e-01
4.890416762415442e-01 8.722604189151506e-01 4.999999999996251e-01
4.890416762415440e-01 8.722604189151505e-01 1.000000000000375e+00
0.000000000000000e+00 1.000000000000000e+00 1.000000000000375e+00
2.440522288860949e-01 9.697620891119340e-01 4.999999999996250e-01
4.890416762415440e-01 8.722604189151503e-01 7.499999999999998e-01
2.440522288860949e-01 9.697620891119340e-01 1.000000000000375e+00
0.000000000000000e+00 1.000000000000000e+00 7.500000000000000e-01
2.440522288860949e-01 9.697620891119340e-01 7.499999999999998e-01
1.500000000000000e+00 3.000000000000000e-01 3.000000000000000e+00
2.000000000000000e+00 3.000000000000000e-01 3.000000000000000e+00
2.000000000000000e+00 3.000000000000000e-01 3.500000000000000e+00
1.500000000000000e+00 3.000000000000000e-01 3.500000000000000e+00
1.750000000000000e+00 2.999999999999999e-01 3.000000000000000e+00
2.000000000000000e+00 3.000000000000000e-01 3.250000000000000e+00
1.750000000000000e+00 3.000000000000000e-01 3.500000000000000e+00
1.500000000000000e+00 3.000000000000000e-01 3.250000000000000e+00
1.750000000000000e+00 3.000000000000000e-01 3.250000000000000e+00
1.000000000000000e+00 3.000000000000000e-01 3.000000000000000e+00
1.500000000000000e+00 3.000000000000000e-01 3.000000000000000e+00
1.500000000000000e+00 3.000000000000000e-01 3.500000000000000e+00
1.000000000000000e+00 3.000000000000000e-01 3.500000000000000e+00
1.250000000000000e+00 2.999999999999999e-01 3.000000000000000e+00
1.500000000000000e+00 3.000000000000000e-01 3.250000000000000e+00
1.250000000000000e+00 2.999999999999999e-01 3.500000000000000e+00
1.000000000000000e+00 3.000000000000000e-01 3.250000000000000e+00
1.250000000000000e+00 3.000000000000000e-01 3.250000000000000e+00
5.000000000000000e-01 3.000000000000000e-01 3.000000000000000e+00
1.000000000000000e+00 3.000000000000000e-01 3.000000000000000e+00
1.000000000000000e+00 3.000000000000000e-01 3.500000000000000e+00
5.000000000000000e-01 3.000000000000000e-01 3.500000000000000e+00
7.500000000000000e-01 2.999999999999999e-01 3.000000000000000e+00
1.000000000000000e+00 3.000000000000000e-01 3.250000000000000e+00
7.500000000000000e-01 2.999999999999999e-01 3.500000000000000e+00
5.000000000000000e-01 3.000000000000000e-01 3.250000000000000e+00
7.500000000000000e-01 3.000000000000000e-01 3.250000000000000e+00
0.000000000000000e+00 3.000000000000000e-01 3.000000000000000e+00
5.000000000000000e-01 3.000000000000000e-01 3.000000000000000e+00
5.000000000000000e-01 3.000000000000000e-01 3.500000000000000e+00
0.000000000000000e+00 3.000000000000000e-01 3.500000000000000e+00
2.500000000000000e-01 3.000000000000000e-01 3.000000000000000e+00
5.000000000000000e-01 3.000000000000000e-01 3.250000000000000e+00
2.500000000000000e-01 3.000000000000000e-01 3.500000000000000e+00
0.000000000000000e+00 3.000000000000000e-01 3.250000000000000e+00
2.500000000000000e-01 3.000000000000000e-01 3.250000000000000e+00
0.000000000000000e+00 3.000000000000000e-01 2.500000000000000e+00
5.000000000000000e-01 3.000000000000000e-01 2.500000000000000e+00
5.000000000000000e-01 3.000000000000000e-01 3.000000000000000e+00
0.000000000000000e+00 3.000000000000000e-01 3.000000000000000e+00
2.500000000000000e-01 3.000000000000000e-01 2.500000000000000e+00
5.000000000000000e-01 3.000000000000000e-01 2.750000000000000e+00
2.500000000000000e-01 3.000000000000000e-01 3.000000000000000e+00
0.000000000000000e+00 3.000000000000000e-01 2.750000000000000e+00
2.500000000000000e-01 3.000000000000000e-01 2.750000000000000e+00
5.000000000000000e-01 3.000000000000000e-01 2.500000000000000e+00
1.000000000000000e+00 3.000000000000000e-01 2.500000000000000e+00
1.000000000000000e+00 3.000000000000000e-01 3.000000000000000e+00
5.000000000000000e-01 3.000000000000000e-01 3.000000000000000e+00
7.500000000000000e-01 2.999999999999999e-01 2.500000000000000e+00
1.000000000000000e+00 3.000000000000000e-01 2.750000000000000e+00
7.500000000000000e-01 2.999999999999999e-01 3.000000000000000e+00
5.000000000000000e-01 3.000000000000000e-01 2.750000000000000e+00
7.500000000000000e-01 3.000000000000000e-01 2.750000000000000e+00
1.000000000000000e+00 3.000000000000000e-01 2.500000000000000e+00
1.500000000000000e+00 3.000000000000000e-01 2.500000000000000e+00
1.500000000000000e+00 3.000000000000000e-01 3.000000000000000e+00
1.000000000000000e+00 3.000000000000000e-01 3.000000000000000e+00
1.250000000000000e+00 2.999999999999999e-01 2.500000000000000e+00
1.500000000000000e+00 3.000000000000000e-01 2.750000000000000e+00
1.250000000000000e+00 2.999999999999999e-01 3.000000000000000e+00
1.000000000000000e+00 3.000000000000000e-01 2.750000000000000e+00
1.250000000000000e+00 3.000000000000000e-01 2.750000000000000e+00
1.500000000000000e+00 3.000000000000000e-01 2.500000000000000e+00
2.000000000000000e+00 3.000000000000000e-01 2.500000000000000e+00
2.000000000000000e+00 3.000000000000000e-01 3.000000000000000e+00
1.500000000000000e+00 3.000000000000000e-01 3.000000000000000e+00
1.750000000000000e+00 3.000000000000000e-01 2.500000000000000e+00
2.000000000000000e+00 3.000000000000000e-01 2.750000000000000e+00
1.750000000000000e+00 2.999999999999999e-01 3.000000000000000e+00
1.500000000000000e+00 3.000000000000000e-01 2.750000000000000e+00
1.750000000000000e+00 3.000000000000000e-01 2.750000000000000e+00
        </DataArray>
      </Points>

      <Cells>
        <DataArray type="Int32" Name="connectivity" format="ascii">
0 1 2 3 4 5 6 7 8 9 10 11 12 13 14 15 16 17 18 19 20 21 22 23 24 25 26 27 28 29 30 31 32 33 34 35 36 37 38 39 40 41 42 43 44 45 46 47 48 49 50 51 52 53 54 55 56 57 58 59 60 61 62 63 64 65 66 67 68 69 70 71 72 73 74 75 76 77 78 79 80 81 82 83 84 85 86 87 88 89 90 91 92 93 94 95 96 97 98 99 100 101 102 103 104 105 106 107 108 109 110 111 112 113 114 115 116 117 118 119 120 121 122 123 124 125 126 127 128 129 130 131 132 133 134 135 136 137 138 139 140 141 142 143 144 145 146 147 148 149 150 151 152 
        </DataArray>
        <DataArray type="Int32" Name="offsets" format="ascii">

        </DataArray>
        <DataArray type="UInt8" Name="types" format="ascii">

        </DataArray>
      </Cells>

  <PointData>
        <DataArray type="Float64" Name="coupling_id" format="ascii">
1.000000000000000e+00
1.000000000000000e+00
1.000000000000000e+00
1.000000000000000e+00
1.000000000000000e+00
1.000000000000000e+00
1.000000000000000e+00
1.000000000000000e+00
1.000000000000000e+00
1.000000000000000e+00
1.000000000000000e+00
1.000000000000000e+00
1.000000000000000e+00
1.000000000000000e+00
1.000000000000000e+00
1.000000000000000e+00
1.000000000000000e+00
1.000000000000000e+00
1.000000000000000e+00
1.000000000000000e+00
1.000000000000000e+00
1.000000000000000e+00
1.000000000000000e+00
1.000000000000000e+00
1.000000000000000e+00
1.000000000000000e+00
1.000000000000000e+00
1.000000000000000e+00
1.000000000000000e+00
1.000000000000000e+00
1.000000000000000e+00
1.000000000000000e+00
1.000000000000000e+00
1.000000000000000e+00
1.000000000000000e+00
1.000000000000000e+00
1.000000000000000e+00
1.000000000000000e+00
1.000000000000000e+00
1.000000000000000e+00
1.000000000000000e+00
1.000000000000000e+00
1.000000000000000e+00
1.000000000000000e+00
1.000000000000000e+00
1.000000000000000e+00
1.000000000000000e+00
1.000000000000000e+00
1.000000000000000e+00
1.000000000000000e+00
1.000000000000000e+00
1.000000000000000e+00
1.000000000000000e+00
1.000000000000000e+00
1.000000000000000e+00
1.000000000000000e+00
1.000000000000000e+00
1.000000000000000e+00
1.000000000000000e+00
1.000000000000000e+00
1.000000000000000e+00
1.000000000000000e+00
1.000000000000000e+00
1.000000000000000e+00
1.000000000000000e+00
1.000000000000000e+00
1.000000000000000e+00
1.000000000000000e+00
1.000000000000000e+00
1.000000000000000e+00
1.000000000000000e+00
1.000000000000000e+00
1.000000000000000e+00
1.000000000000000e+00
1.000000000000000e+00
1.000000000000000e+00
1.000000000000000e+00
1.000000000000000e+00
1.000000000000000e+00
1.000000000000000e+00
1.000000000000000e+00
2.000000000000000e+00
2.000000000000000e+00
2.000000000000000e+00
2.000000000000000e+00
2.000000000000000e+00
2.000000000000000e+00
2.000000000000000e+00
2.000000000000000e+00
2.000000000000000e+00
2.000000000000000e+00
2.000000000000000e+00
2.000000000000000e+00
2.000000000000000e+00
2.000000000000000e+00
2.000000000000000e+00
2.000000000000000e+00
2.000000000000000e+00
2.000000000000000e+00
2.000000000000000e+00
2.000000000000000e+00
2.000000000000000e+00
2.000000000000000e+00
2.000000000000000e+00
2.000000000000000e+00
2.000000000000000e+00
2.000000000000000e+00
2.000000000000000e+00
2.000000000000000e+00
2.000000000000000e+00
2.000000000000000e+00
2.000000000000000e+00
2.000000000000000e+00
2.000000000000000e+00
2.000000000000000e+00
2.000000000000000e+00
2.000000000000000e+00
2.000000000000000e+00
2.000000000000000e+00
2.000000000000000e+00
2.000000000000000e+00
2.000000000000000e+00
2.000000000000000e+00
2.000000000000000e+00
2.000000000000000e+00
2.000000000000000e+00
2.000000000000000e+00
2.000000000000000e+00
2.000000000000000e+00
2.000000000000000e+00
2.000000000000000e+00
2.000000000000000e+00
2.000000000000000e+00
2.000000000000000e+00
2.000000000000000e+00
2.000000000000000e+00
2.000000000000000e+00
2.000000000000000e+00
2.000000000000000e+00
2.000000000000000e+00
2.000000000000000e+00
2.000000000000000e+00
2.000000000000000e+00
2.000000000000000e+00
2.000000000000000e+00
2.000000000000000e+00
2.000000000000000e+00
2.000000000000000e+00
2.000000000000000e+00
2.000000000000000e+00
2.000000000000000e+00
2.000000000000000e+00
2.000000000000000e+00
        </DataArray>
        <DataArray type="Float64" Name="displacement" NumberOfComponents="3" format="ascii">
5.566281981192911e-02 1.526997453156160e-01 -6.072757167003839e-04
1.842824576511939e-01 2.099564373298975e-01 -1.573682355359340e-02
1.434046060309755e-01 1.531391743874554e-01 -2.519626025319677e-02
3.585133614348113e-02 1.056793764751511e-01 -2.453550948035232e-03
1.163322147042684e-01 1.915265900594808e-01 -3.218730909738898e-03
1.615247294216862e-01 1.790488781365309e-01 -2.286267358943261e-02
8.528165869791626e-02 1.378870035425205e-01 -9.925840787379014e-03
4.632922220190083e-02 1.281971545070685e-01 -1.733953658507259e-03
1.009725830547612e-01 1.624798200915221e-01 -7.982921973355150e-03
-8.855886476924590e-03 5.187663516648866e-02 -3.510991515727868e-03
5.566281981192911e-02 1.526997453156160e-01 -6.072757167003839e-04
3.585133614348113e-02 1.056793764751511e-01 -2.453550948035232e-03
-7.972302649008944e-03 2.872103011688598e-02 2.064372890559607e-03
1.160175640190353e-02 1.019959797143956e-01 -2.967794795549428e-03
4.632922220190083e-02 1.281971545070685e-01 -1.733953658507259e-03
2.988577614396970e-03 6.531005891358110e-02 7.836310755160447e-05
-8.373200101079725e-03 4.260993224515397e-02 -3.941187053990713e-04
7.322723441259171e-03 8.438969576479483e-02 -8.555872088671368e-04
0.000000000000000e+00 0.000000000000000e+00 0.000000000000000e+00
-8.855886476924590e-03 5.187663516648866e-02 -3.510991515727868e-03
-7.972302649008944e-03 2.872103011688598e-02 2.064372890559607e-03
0.000000000000000e+00 0.000000000000000e+00 0.000000000000000e+00
-1.018145260412662e-02 1.505693928715190e-02 -2.372862414554255e-03
-8.373200101079725e-03 4.260993224515397e-02 -3.941187053990713e-04
-5.613267481009904e-03 5.125442138037228e-03 2.278407717766662e-03
0.000000000000000e+00 0.000000000000000e+00 0.000000000000000e+00
-7.729446706512655e-03 1.245422693910025e-02 -1.752495624822714e-04
8.075134558459240e-02 1.986041937105445e-01 -3.849201928478041e-04
2.485301159350723e-01 2.819355777105528e-01 5.384489767037759e-03
1.842824576511939e-01 2.099564373298975e-01 -1.573682355359340e-02
5.566281981192911e-02 1.526997453156160e-01 -6.072757167003839e-04
1.620523069435539e-01 2.526893985264715e-01 5.148207494908685e-03
2.128826375466544e-01 2.446544658828675e-01 -5.695504362482895e-03
1.163322147042684e-01 1.915265900594808e-01 -3.218730909738898e-03
6.631567794802429e-02 1.769233560128177e-01 1.134222982378530e-04
1.353592304120318e-01 2.224541655149940e-01 1.960417285638449e-03
-8.729113074674000e-03 6.254491438451126e-02 -6.674570617735465e-03
8.075134558459240e-02 1.986041937105445e-01 -3.849201928478041e-04
5.566281981192911e-02 1.526997453156160e-01 -6.072757167003839e-04
-8.855886476924590e-03 5.187663516648866e-02 -3.510991515727868e-03
1.959550435745372e-02 1.301386733692171e-01 -6.252541861708705e-03
6.631567794802429e-02 1.769233560128177e-01 1.134222982378530e-04
1.160175640190353e-02 1.019959797143956e-01 -2.967794795549428e-03
-9.085983545228660e-03 5.802150662993888e-02 -6.024917999991386e-03
1.572593165456504e-02 1.174664568775236e-01 -5.139649672999957e-03
0.000000000000000e+00 0.000000000000000e+00 0.000000000000000e+00
-1.346163311168480e-02 6.387819853185461e-02 -8.352736689575806e-03
-8.729113074674000e-03 6.254491438451126e-02 -6.674570617735465e-03
0.000000000000000e+00 0.000000000000000e+00 0.000000000000000e+00
-1.105716670306328e-02 9.477192649093968e-03 -6.472719529769794e-03
-9.587065963935659e-03 6.473457337140842e-02 -6.952869977937898e-03
-1.148993622124012e-02 1.492655977065172e-02 -3.761415851276373e-03
0.000000000000000e+00 0.000000000000000e+00 0.000000000000000e+00
-1.072602603341580e-02 1.337919017123956e-02 -4.098723170266827e-03
-1.346163311168480e-02 6.387819853185461e-02 -8.352736689575806e-03
1.180759197429692e-01 2.411826959281919e-01 1.058960082822306e-02
8.075134558459240e-02 1.986041937105445e-01 -3.849201928478041e-04
-8.729113074674000e-03 6.254491438451126e-02 -6.674570617735465e-03
2.140465465438157e-02 1.488891829824280e-01 -3.103791976191637e-03
9.824602531756443e-02 2.194535448639207e-01 1.804778690372655e-03
1.959550435745372e-02 1.301386733692171e-01 -6.252541861708705e-03
-9.587065963935659e-03 6.473457337140842e-02 -6.952869977937898e-03
2.191892764568126e-02 1.404628438504913e-01 -5.757059812497328e-03
1.180759197429692e-01 2.411826959281919e-01 1.058960082822306e-02
3.781389453151367e-01 3.633699904446597e-01 3.756179657378601e-02
2.485301159350723e-01 2.819355777105528e-01 5.384489767037759e-03
8.075134558459240e-02 1.986041937105445e-01 -3.849201928478041e-04
2.475347629537207e-01 3.182185570302959e-01 2.616909655722258e-02
3.005178870974783e-01 3.215805076265433e-01 1.922848226807042e-02
1.620523069435539e-01 2.526893985264715e-01 5.148207494908685e-03
9.824602531756443e-02 2.194535448639207e-01 1.804778690372655e-03
1.986859744177503e-01 2.840162190471125e-01 1.149948536859222e-02
0.000000000000000e+00 0.000000000000000e+00 0.000000000000000e+00
-8.729113074674000e-03 6.254491438451126e-02 -6.674570617735465e-03
-8.855886476924590e-03 5.187663516648866e-02 -3.510991515727868e-03
0.000000000000000e+00 0.000000000000000e+00 0.000000000000000e+00
-1.148993622124012e-02 1.492655977065172e-02 -3.761415851276373e-03
-9.085983545228660e-03 5.802150662993888e-02 -6.024917999991386e-03
-1.018145260412662e-02 1.505693928715190e-02 -2.372862414554255e-03
0.000000000000000e+00 0.000000000000000e+00 0.000000000000000e+00
-1.181853312524381e-02 1.514418246879989e-02 -3.754796092729551e-03
-2.088759514958389e-01 5.640647194537138e-01 4.828723054531858e-02
-3.119770060275273e-01 8.589731308516868e-01 3.904786344048450e-02
-3.916070241825544e-01 9.793695861948581e-01 1.485825160298537e-02
-2.723289236516648e-01 6.348787595986909e-01 3.812816011996656e-02
-2.603872922876063e-01 7.100326717716764e-01 4.432255031602939e-02
-3.515352076451330e-01 9.121487396496888e-01 2.765955134674236e-02
-3.279670034198097e-01 8.065083877584405e-01 2.975147053983873e-02
-2.383013791698274e-01 6.003849484328274e-01 4.535244131985650e-02
-2.929476115949641e-01 7.564256739504620e-01 3.888837519761434e-02
-1.182149212056081e-01 2.937296852024221e-01 3.876027531668447e-02
-2.088759514958389e-01 5.640647194537138e-01 4.828723054531858e-02
-2.723289236516648e-01 6.348787595986909e-01 3.812816011996656e-02
-1.715992684224986e-01 3.246737747376492e-01 3.659229865958791e-02
-1.604746167644360e-01 4.242401114224218e-01 4.756033019124128e-02
-2.383013791698274e-01 6.003849484328274e-01 4.535244131985650e-02
-2.213279552089507e-01 4.718205918727227e-01 4.030340720575509e-02
-1.442572906074764e-01 3.132222185495339e-01 3.842398103795297e-02
-1.884525817229297e-01 4.504944882485846e-01 4.566116987834423e-02
-5.209425692239689e-02 8.893981803285228e-02 1.277816840734269e-02
-1.182149212056081e-01 2.937296852024221e-01 3.876027531668447e-02
-1.715992684224986e-01 3.246737747376492e-01 3.659229865958791e-02
-8.193293309000277e-02 9.549873395789327e-02 2.366059905061535e-02
-8.209031714853510e-02 1.796055507528530e-01 2.584643252195074e-02
-1.442572906074764e-01 3.132222185495339e-01 3.842398103795297e-02
-1.246364116102141e-01 1.977844436228972e-01 3.003223057627258e-02
-6.853482657647458e-02 9.795090826358699e-02 1.702915741356748e-02
-1.046424056248605e-01 1.939228037498198e-01 2.757020136194122e-02
0.000000000000000e+00 0.000000000000000e+00 0.000000000000000e+00
-5.209425692239689e-02 8.893981803285228e-02 1.277816840734269e-02
-8.193293309000277e-02 9.549873395789327e-02 2.366059905061535e-02
0.000000000000000e+00 0.000000000000000e+00 0.000000000000000e+00
-2.560479853646228e-02 2.723659759703095e-02 3.010888918234755e-03
-6.853482657647458e-02 9.795090826358699e-02 1.702915741356748e-02
-4.116280513041468e-02 2.663210099835511e-02 1.460674266454776e-02
0.000000000000000e+00 0.000000000000000e+00 0.000000000000000e+00
-3.422415689172054e-02 3.130911328294417e-02 7.579530017899128e-03
0.000000000000000e+00 0.000000000000000e+00 0.000000000000000e+00
-1.248021056373216e-02 5.143480546806345e-02 1.075431921771486e-02
-5.209425692239689e-02 8.893981803285228e-02 1.277816840734269e-02
0.000000000000000e+00 0.000000000000000e+00 0.000000000000000e+00
-2.051626457617473e-03 7.273885045259110e-03 1.448520166509315e-03
-3.320984472055449e-02 7.219220364218060e-02 1.074182476452945e-02
-2.560479853646228e-02 2.723659759703095e-02 3.010888918234755e-03
0.000000000000000e+00 0.000000000000000e+00 0.000000000000000e+00
-1.498664880998096e-02 1.802227962350578e-02 9.506190672174952e-04
-1.248021056373216e-02 5.143480546806345e-02 1.075431921771486e-02
-6.566498577319657e-02 2.336430046466136e-01 3.779166987152394e-02
-1.182149212056081e-01 2.937296852024221e-01 3.876027531668447e-02
-5.209425692239689e-02 8.893981803285228e-02 1.277816840734269e-02
-3.308493583127992e-02 1.282890743184896e-01 2.413087612794351e-02
-9.238115474985953e-02 2.669515041001650e-01 3.831242406985247e-02
-8.209031714853510e-02 1.796055507528530e-01 2.584643252195074e-02
-3.320984472055449e-02 7.219220364218060e-02 1.074182476452945e-02
-5.792340695831577e-02 1.570039018648063e-01 2.474022409703958e-02
-6.566498577319657e-02 2.336430046466136e-01 3.779166987152394e-02
-1.478811610694528e-01 4.887164710972038e-01 5.363699462518312e-02
-2.088759514958389e-01 5.640647194537138e-01 4.828723054531858e-02
-1.182149212056081e-01 2.937296852024221e-01 3.876027531668447e-02
-1.055028857368112e-01 3.572132517927480e-01 4.865445714006666e-02
-1.800650692542103e-01 5.266109384217170e-01 5.001969318440924e-02
-1.604746167644360e-01 4.242401114224218e-01 4.756033019124128e-02
-9.238115474985953e-02 2.669515041001650e-01 3.831242406985247e-02
-1.339670536601647e-01 3.931241398014155e-01 4.791879149497369e-02
-1.478811610694528e-01 4.887164710972038e-01 5.363699462518312e-02
-2.408535166950356e-01 7.680193498402157e-01 5.598099280380309e-02
-3.119770060275273e-01 8.589731308516868e-01 3.904786344048450e-02
-2.088759514958389e-01 5.640647194537138e-01 4.828723054531858e-02
-1.929484814844258e-01 6.262770434747651e-01 5.524420046653988e-02
-2.745454366155555e-01 8.131581906366097e-01 4.862205491568172e-02
-2.603872922876063e-01 7.100326717716764e-01 4.432255031602939e-02
-1.800650692542103e-01 5.266109384217170e-01 5.001969318440924e-02
-2.278621980625044e-01 6.668196915153535e-01 4.884436802802394e-02
        </DataArray>
        <DataArray type="Float64" Name="normal_averaged" NumberOfComponents="3" format="ascii">
7.039494901628860e-01 7.036034385336759e-01 9.693975749402652e-02
9.503949534976395e-01 2.788359921531712e-01 1.378402040268960e-01
9.653466512898685e-01 2.470392856660159e-01 8.412748766640926e-02
7.426751351038673e-01 6.635566366280282e-01 9.014562488191960e-02
8.600896968087411e-01 4.964795397685685e-01 1.172765110098274e-01
9.620679998957108e-01 2.500310243476228e-01 1.091313449030359e-01
8.842800001310245e-01 4.567382497312908e-01 9.715478681296298e-02
7.254611457325619e-01 6.819212720546656e-01 9.321751311714675e-02
8.759400142169138e-01 4.705618783963988e-01 1.063043277281102e-01
3.271036078634476e-01 9.446510991342173e-01 2.524936884816776e-02
7.039494901628860e-01 7.036034385336759e-01 9.693975749402652e-02
7.426751351038670e-01 6.635566366280282e-01 9.014562488191959e-02
3.871947326129062e-01 9.201358491751797e-01 5.856840530090664e-02
5.320298431935354e-01 8.442032797287790e-01 6.530749150468854e-02
7.254611457325616e-01 6.819212720546658e-01 9.321751311714677e-02
5.816969942686507e-01 8.100094170989516e-01 7.425194320577699e-02
3.623458617979752e-01 9.310964059860064e-01 4.201141746983290e-02
5.608863880019817e-01 8.249480652598721e-01 6.976495809562429e-02
-2.309589266802766e-02 9.997332542942976e-01 0.000000000000000e+00
3.271036078634478e-01 9.446510991342174e-01 2.524936884816777e-02
3.871947326129060e-01 9.201358491751797e-01 5.856840530090664e-02
1.343192200590740e-02 9.999097876664811e-01 -0.000000000000000e+00
1.499441171674410e-01 9.886942800136524e-01 -6.183810816710175e-04
3.623458617979750e-01 9.310964059860066e-01 4.201141746983291e-02
1.947798464782337e-01 9.801821311060617e-01 3.610818835520654e-02
-1.931891292127499e-02 9.998133723868372e-01 0.000000000000000e+00
1.677035748364480e-01 9.856753111478812e-01 1.787993234337301e-02
6.273393544010635e-01 7.718344452887390e-01 1.035225747626155e-01
9.109187424388585e-01 3.566793268824667e-01 2.073810561461175e-01
9.503949534976395e-01 2.788359921531712e-01 1.378402040268958e-01
7.039494901628860e-01 7.036034385336759e-01 9.693975749402663e-02
8.009160242013580e-01 5.747311523287896e-01 1.679810248817154e-01
9.321864641158306e-01 3.180333638882256e-01 1.728675087260890e-01
8.600896968087411e-01 4.964795397685685e-01 1.172765110098272e-01
6.726646536731319e-01 7.330090443588578e-01 1.010940383352032e-01
8.348992664021894e-01 5.313020559839056e-01 1.437405310563475e-01
2.649194300435198e-01 9.641534939899206e-01 1.502450040582577e-02
6.273393544010637e-01 7.718344452887389e-01 1.035225747626155e-01
7.039494901628860e-01 7.036034385336759e-01 9.693975749402663e-02
3.271036078634477e-01 9.446510991342175e-01 2.524936884816792e-02
4.623575640927552e-01 8.854608415227829e-01 4.673950209382765e-02
6.726646536731318e-01 7.330090443588579e-01 1.010940383352032e-01
5.320298431935355e-01 8.442032797287791e-01 6.530749150468874e-02
2.912774137526736e-01 9.564221196013475e-01 2.035183959300258e-02
4.979794441190601e-01 8.653594234632910e-01 5.629868078518637e-02
4.681662870790178e-02 9.989035004826174e-01 -0.000000000000000e+00
2.216714753380385e-01 9.750217118603522e-01 -1.394340067435210e-02
2.649194300435200e-01 9.641534939899208e-01 1.502450040582568e-02
-1.019835340071529e-03 9.999994799678044e-01 0.000000000000000e+00
1.296885526782509e-01 9.913465167268811e-01 -2.032149299880011e-02
2.432305702261061e-01 9.699684579515001e-01 2.833490289488301e-04
1.298902323716060e-01 9.915280661011370e-01 -7.884593773338849e-04
1.622452374347171e-02 9.998683737519141e-01 -0.000000000000000e+00
1.262113260779060e-01 9.919462719518526e-01 -1.064399974060897e-02
2.216714753380387e-01 9.750217118603522e-01 -1.394340067435211e-02
4.791546006332508e-01 8.690321426198842e-01 1.232639597996233e-01
6.273393544010637e-01 7.718344452887388e-01 1.035225747626155e-01
2.649194300435198e-01 9.641534939899207e-01 1.502450040582567e-02
3.704879813571372e-01 9.284930776227242e-01 2.528360094202207e-02
5.633290874751130e-01 8.182962936885428e-01 1.142432271080004e-01
4.623575640927552e-01 8.854608415227830e-01 4.673950209382766e-02
2.432305702261061e-01 9.699684579515002e-01 2.833490289488304e-04
4.210945077634573e-01 9.063124900734728e-01 3.573633820458890e-02
4.791546006332510e-01 8.690321426198842e-01 1.232639597996233e-01
7.733148707817142e-01 4.942070379435615e-01 3.971693773126422e-01
9.109187424388583e-01 3.566793268824666e-01 2.073810561461177e-01
6.273393544010636e-01 7.718344452887390e-01 1.035225747626155e-01
6.591641201532265e-01 7.036873669909192e-01 2.651919158647377e-01
8.570593816019666e-01 4.121325331644373e-01 3.091860144241949e-01
8.009160242013579e-01 5.747311523287895e-01 1.679810248817152e-01