<?xml version="1.0" ?> 
<!-- 
# vtk DataFile Version 3.0
-->
<VTKFile type="UnstructuredGrid" version="0.1" compressor="vtkZLibDataCompressor" byte_order="LittleEndian">
  <UnstructuredGrid>
    <FieldData>
      <DataArray type="Float64" Name="TIME" NumberOfTuples="1" format="ascii">
1.000000000000000e+00 
      </DataArray>
    </FieldData>

    <Piece NumberOfPoints="171" NumberOfCells="19" >
      <Points>
        <DataArray type="Float64" NumberOfComponents="3" format="ascii">
-5.000000000000000e-01 -2.500000000000000e-01 -1.100000000000000e+00
5.000000000000000e-01 -2.500000000000000e-01 -1.100000000000000e+00
5.000000000000000e-01 2.500000000000000e-01 -1.100000000000000e+00
-5.000000000000000e-01 2.500000000000000e-01 -1.100000000000000e+00
-5.000000000000000e-01 -2.500000000000000e-01 -1.000000000000000e+00
5.000000000000000e-01 -2.500000000000000e-01 -1.000000000000000e+00
5.000000000000000e-01 2.500000000000000e-01 -1.000000000000000e+00
-5.000000000000000e-01 2.500000000000000e-01 -1.000000000000000e+00
0.000000000000000e+00 -2.500000000000000e-01 -1.100000000000000e+00
5.000000000000000e-01 0.000000000000000e+00 -1.100000000000000e+00
0.000000000000000e+00 2.500000000000000e-01 -1.100000000000000e+00
-5.000000000000000e-01 0.000000000000000e+00 -1.100000000000000e+00
0.000000000000000e+00 -2.500000000000000e-01 -1.000000000000000e+00
5.000000000000000e-01 0.000000000000000e+00 -1.000000000000000e+00
0.000000000000000e+00 2.500000000000000e-01 -1.000000000000000e+00
-5.000000000000000e-01 0.000000000000000e+00 -1.000000000000000e+00
-5.000000000000000e-01 -2.500000000000000e-01 -1.050000000000000e+00
5.000000000000000e-01 -2.500000000000000e-01 -1.050000000000000e+00
5.000000000000000e-01 2.500000000000000e-01 -1.050000000000000e+00
-5.000000000000000e-01 2.500000000000000e-01 -1.050000000000000e+00
-5.000000000000000e-01 0.000000000000000e+00 -1.050000000000000e+00
5.000000000000000e-01 0.000000000000000e+00 -1.050000000000000e+00
0.000000000000000e+00 -2.500000000000000e-01 -1.050000000000000e+00
0.000000000000000e+00 2.500000000000000e-01 -1.050000000000000e+00
0.000000000000000e+00 0.000000000000000e+00 -1.100000000000000e+00
0.000000000000000e+00 0.000000000000000e+00 -1.000000000000000e+00
0.000000000000000e+00 0.000000000000000e+00 -1.050000000000000e+00
-9.299999761580000e-01 2.500000000000000e-01 0.000000000000000e+00
-6.199999841050000e-01 2.500000000000000e-01 0.000000000000000e+00
-6.199999841050000e-01 -2.500000000000000e-01 0.000000000000000e+00
-9.299999761580000e-01 -2.500000000000000e-01 0.000000000000000e+00
-9.299999761580000e-01 2.500000000000000e-01 -3.198807032900000e-01
-6.199999841050000e-01 2.500000000000000e-01 -3.198807032900000e-01
-6.199999841050000e-01 -2.500000000000000e-01 -3.198807032900000e-01
-9.299999761580000e-01 -2.500000000000000e-01 -3.198807032900000e-01
-6.199999841050000e-01 2.500000000000000e-01 0.000000000000000e+00
-3.099999920530000e-01 2.500000000000000e-01 0.000000000000000e+00
-3.099999920530000e-01 -2.500000000000000e-01 0.000000000000000e+00
-6.199999841050000e-01 -2.500000000000000e-01 0.000000000000000e+00
-6.199999841050000e-01 2.500000000000000e-01 -3.198807032900000e-01
-3.099999920530000e-01 2.500000000000000e-01 -3.198807032900000e-01
-3.099999920530000e-01 -2.500000000000000e-01 -3.198807032900000e-01
-6.199999841050000e-01 -2.500000000000000e-01 -3.198807032900000e-01
-3.099999920530000e-01 2.500000000000000e-01 0.000000000000000e+00
0.000000000000000e+00 2.500000000000000e-01 0.000000000000000e+00
0.000000000000000e+00 -2.500000000000000e-01 0.000000000000000e+00
-3.099999920530000e-01 -2.500000000000000e-01 0.000000000000000e+00
-3.099999920530000e-01 2.500000000000000e-01 -3.198807032900000e-01
0.000000000000000e+00 2.500000000000000e-01 -3.198807032900000e-01
0.000000000000000e+00 -2.500000000000000e-01 -3.198807032900000e-01
-3.099999920530000e-01 -2.500000000000000e-01 -3.198807032900000e-01
0.000000000000000e+00 2.500000000000000e-01 0.000000000000000e+00
3.099999920530000e-01 2.500000000000000e-01 0.000000000000000e+00
3.099999920530000e-01 -2.500000000000000e-01 0.000000000000000e+00
0.000000000000000e+00 -2.500000000000000e-01 0.000000000000000e+00
0.000000000000000e+00 2.500000000000000e-01 -3.198807032900000e-01
3.099999920530000e-01 2.500000000000000e-01 -3.198807032900000e-01
3.099999920530000e-01 -2.500000000000000e-01 -3.198807032900000e-01
0.000000000000000e+00 -2.500000000000000e-01 -3.198807032900000e-01
3.099999920530000e-01 2.500000000000000e-01 0.000000000000000e+00
6.199999841050000e-01 2.500000000000000e-01 0.000000000000000e+00
6.199999841050000e-01 -2.500000000000000e-01 0.000000000000000e+00
3.099999920530000e-01 -2.500000000000000e-01 0.000000000000000e+00
3.099999920530000e-01 2.500000000000000e-01 -3.198807032900000e-01
6.199999841050000e-01 2.500000000000000e-01 -3.198807032900000e-01
6.199999841050000e-01 -2.500000000000000e-01 -3.198807032900000e-01
3.099999920530000e-01 -2.500000000000000e-01 -3.198807032900000e-01
6.199999841050000e-01 2.500000000000000e-01 0.000000000000000e+00
9.299999761580000e-01 2.500000000000000e-01 0.000000000000000e+00
9.299999761580000e-01 -2.500000000000000e-01 0.000000000000000e+00
6.199999841050000e-01 -2.500000000000000e-01 0.000000000000000e+00
6.199999841050000e-01 2.500000000000000e-01 -3.198807032900000e-01
9.299999761580000e-01 2.500000000000000e-01 -3.198807032900000e-01
9.299999761580000e-01 -2.500000000000000e-01 -3.198807032900000e-01
6.199999841050000e-01 -2.500000000000000e-01 -3.198807032900000e-01
-9.299999761580000e-01 2.500000000000000e-01 -3.198807032900000e-01
-6.199999841050000e-01 2.500000000000000e-01 -3.198807032900000e-01
-6.199999841050000e-01 -2.500000000000000e-01 -3.198807032900000e-01
-9.299999761580000e-01 -2.500000000000000e-01 -3.198807032900000e-01
-9.299999761580000e-01 2.500000000000000e-01 -6.397614065810000e-01
-6.199999841050000e-01 2.500000000000000e-01 -6.397614065810000e-01
-6.199999841050000e-01 -2.500000000000000e-01 -6.397614065810000e-01
-9.299999761580000e-01 -2.500000000000000e-01 -6.397614065810000e-01
-6.199999841050000e-01 2.500000000000000e-01 -3.198807032900000e-01
-3.099999920530000e-01 2.500000000000000e-01 -3.198807032900000e-01
-3.099999920530000e-01 -2.500000000000000e-01 -3.198807032900000e-01
-6.199999841050000e-01 -2.500000000000000e-01 -3.198807032900000e-01
-6.199999841050000e-01 2.500000000000000e-01 -6.397614065810000e-01
-3.099999920530000e-01 2.500000000000000e-01 -6.397614065810000e-01
-3.099999920530000e-01 -2.500000000000000e-01 -6.397614065810000e-01
-6.199999841050000e-01 -2.500000000000000e-01 -6.397614065810000e-01
-3.099999920530000e-01 2.500000000000000e-01 -3.198807032900000e-01
0.000000000000000e+00 2.500000000000000e-01 -3.198807032900000e-01
0.000000000000000e+00 -2.500000000000000e-01 -3.198807032900000e-01
-3.099999920530000e-01 -2.500000000000000e-01 -3.198807032900000e-01
-3.099999920530000e-01 2.500000000000000e-01 -6.397614065810000e-01
0.000000000000000e+00 2.500000000000000e-01 -6.397614065810000e-01
0.000000000000000e+00 -2.500000000000000e-01 -6.397614065810000e-01
-3.099999920530000e-01 -2.500000000000000e-01 -6.397614065810000e-01
0.000000000000000e+00 2.500000000000000e-01 -3.198807032900000e-01
3.099999920530000e-01 2.500000000000000e-01 -3.198807032900000e-01
3.099999920530000e-01 -2.500000000000000e-01 -3.198807032900000e-01
0.000000000000000e+00 -2.500000000000000e-01 -3.198807032900000e-01
0.000000000000000e+00 2.500000000000000e-01 -6.397614065810000e-01
3.099999920530000e-01 2.500000000000000e-01 -6.397614065810000e-01
3.099999920530000e-01 -2.500000000000000e-01 -6.397614065810000e-01
0.000000000000000e+00 -2.500000000000000e-01 -6.397614065810000e-01
3.099999920530000e-01 2.500000000000000e-01 -3.198807032900000e-01
6.199999841050000e-01 2.500000000000000e-01 -3.198807032900000e-01
6.199999841050000e-01 -2.500000000000000e-01 -3.198807032900000e-01
3.099999920530000e-01 -2.500000000000000e-01 -3.198807032900000e-01
3.099999920530000e-01 2.500000000000000e-01 -6.397614065810000e-01
6.199999841050000e-01 2.500000000000000e-01 -6.397614065810000e-01
6.199999841050000e-01 -2.500000000000000e-01 -6.397614065810000e-01
3.099999920530000e-01 -2.500000000000000e-01 -6.397614065810000e-01
6.199999841050000e-01 2.500000000000000e-01 -3.198807032900000e-01
9.299999761580000e-01 2.500000000000000e-01 -3.198807032900000e-01
9.299999761580000e-01 -2.500000000000000e-01 -3.198807032900000e-01
6.199999841050000e-01 -2.500000000000000e-01 -3.198807032900000e-01
6.199999841050000e-01 2.500000000000000e-01 -6.397614065810000e-01
9.299999761580000e-01 2.500000000000000e-01 -6.397614065810000e-01
9.299999761580000e-01 -2.500000000000000e-01 -6.397614065810000e-01
6.199999841050000e-01 -2.500000000000000e-01 -6.397614065810000e-01
-9.299999761580000e-01 2.500000000000000e-01 -6.397614065810000e-01
-6.199999841050000e-01 2.500000000000000e-01 -6.397614065810000e-01
-6.199999841050000e-01 -2.500000000000000e-01 -6.397614065810000e-01
-9.299999761580000e-01 -2.500000000000000e-01 -6.397614065810000e-01
-9.299999761580000e-01 2.500000000000000e-01 -9.596421098710000e-01
-6.199999841050000e-01 2.500000000000000e-01 -9.596421098710000e-01
-6.199999841050000e-01 -2.500000000000000e-01 -9.596421098710000e-01
-9.299999761580000e-01 -2.500000000000000e-01 -9.596421098710000e-01
-6.199999841050000e-01 2.500000000000000e-01 -6.397614065810000e-01
-3.099999920530000e-01 2.500000000000000e-01 -6.397614065810000e-01
-3.099999920530000e-01 -2.500000000000000e-01 -6.397614065810000e-01
-6.199999841050000e-01 -2.500000000000000e-01 -6.397614065810000e-01
-6.199999841050000e-01 2.500000000000000e-01 -9.596421098710000e-01
-3.099999920530000e-01 2.500000000000000e-01 -9.596421098710000e-01
-3.099999920530000e-01 -2.500000000000000e-01 -9.596421098710000e-01
-6.199999841050000e-01 -2.500000000000000e-01 -9.596421098710000e-01
-3.099999920530000e-01 2.500000000000000e-01 -6.397614065810000e-01
0.000000000000000e+00 2.500000000000000e-01 -6.397614065810000e-01
0.000000000000000e+00 -2.500000000000000e-01 -6.397614065810000e-01
-3.099999920530000e-01 -2.500000000000000e-01 -6.397614065810000e-01
-3.099999920530000e-01 2.500000000000000e-01 -9.596421098710000e-01
0.000000000000000e+00 2.500000000000000e-01 -9.596421098710000e-01
0.000000000000000e+00 -2.500000000000000e-01 -9.596421098710000e-01
-3.099999920530000e-01 -2.500000000000000e-01 -9.596421098710000e-01
0.000000000000000e+00 2.500000000000000e-01 -6.397614065810000e-01
3.099999920530000e-01 2.500000000000000e-01 -6.397614065810000e-01
3.099999920530000e-01 -2.500000000000000e-01 -6.397614065810000e-01
0.000000000000000e+00 -2.500000000000000e-01 -6.397614065810000e-01
0.000000000000000e+00 2.500000000000000e-01 -9.596421098710000e-01
3.099999920530000e-01 2.500000000000000e-01 -9.596421098710000e-01
3.099999920530000e-01 -2.500000000000000e-01 -9.596421098710000e-01
0.000000000000000e+00 -2.500000000000000e-01 -9.596421098710000e-01
3.099999920530000e-01 2.500000000000000e-01 -6.397614065810000e-01
6.199999841050000e-01 2.500000000000000e-01 -6.397614065810000e-01
6.199999841050000e-01 -2.500000000000000e-01 -6.397614065810000e-01
3.099999920530000e-01 -2.500000000000000e-01 -6.397614065810000e-01
3.099999920530000e-01 2.500000000000000e-01 -9.596421098710000e-01
6.199999841050000e-01 2.500000000000000e-01 -9.596421098710000e-01
6.199999841050000e-01 -2.500000000000000e-01 -9.596421098710000e-01
3.099999920530000e-01 -2.500000000000000e-01 -9.596421098710000e-01
6.199999841050000e-01 2.500000000000000e-01 -6.397614065810000e-01
9.299999761580000e-01 2.500000000000000e-01 -6.397614065810000e-01
9.299999761580000e-01 -2.500000000000000e-01 -6.397614065810000e-01
6.199999841050000e-01 -2.500000000000000e-01 -6.397614065810000e-01
6.199999841050000e-01 2.500000000000000e-01 -9.596421098710000e-01
9.299999761580000e-01 2.500000000000000e-01 -9.596421098710000e-01
9.299999761580000e-01 -2.500000000000000e-01 -9.596421098710000e-01
6.199999841050000e-01 -2.500000000000000e-01 -9.596421098710000e-01
        </DataArray>
      </Points>

      <Cells>
        <DataArray type="Int32" Name="connectivity" format="ascii">
0 1 2 3 4 5 6 7 8 9 10 11 12 13 14 15 16 17 18 19 20 21 22 23 24 25 26 27 28 29 30 31 32 33 34 35 36 37 38 39 40 41 42 43 44 45 46 47 48 49 50 51 52 53 54 55 56 57 58 59 60 61 62 63 64 65 66 67 68 69 70 71 72 73 74 75 76 77 78 79 80 81 82 83 84 85 86 87 88 89 90 91 92 93 94 95 96 97 98 99 100 101 102 103 104 105 106 107 108 109 110 111 112 113 114 115 116 117 118 119 120 121 122 123 124 125 126 127 128 129 130 131 132 133 134 135 136 137 138 139 140 141 142 143 144 145 146 147 148 149 150 151 152 153 154 155 156 157 158 159 160 161 162 163 164 165 166 167 168 169 170 
        </DataArray>
        <DataArray type="Int32" Name="offsets" format="ascii">
27 35 43 51 59 67 75 83 91 99 107 115 123 131 139 147 155 163 171 
        </DataArray>
        <DataArray type="UInt8" Name="types" format="ascii">
29 12 12 12 12 12 12 12 12 12 12 12 12 12 12 12 12 12 12 
        </DataArray>
      </Cells>

  <PointData>
        <DataArray type="Float64" Name="displacement" NumberOfComponents="3" format="ascii">
0.000000000000000e+00 0.000000000000000e+00 0.000000000000000e+00
0.000000000000000e+00 0.000000000000000e+00 0.000000000000000e+00
0.000000000000000e+00 0.000000000000000e+00 0.000000000000000e+00
0.000000000000000e+00 0.000000000000000e+00 0.000000000000000e+00
0.000000000000000e+00 0.000000000000000e+00 0.000000000000000e+00
0.000000000000000e+00 0.000000000000000e+00 0.000000000000000e+00
0.000000000000000e+00 0.000000000000000e+00 0.000000000000000e+00
0.000000000000000e+00 0.000000000000000e+00 0.000000000000000e+00
0.000000000000000e+00 0.000000000000000e+00 0.000000000000000e+00
0.000000000000000e+00 0.000000000000000e+00 0.000000000000000e+00
0.000000000000000e+00 0.000000000000000e+00 0.000000000000000e+00
0.000000000000000e+00 0.000000000000000e+00 0.000000000000000e+00
0.000000000000000e+00 0.000000000000000e+00 0.000000000000000e+00
0.000000000000000e+00 0.000000000000000e+00 0.000000000000000e+00
0.000000000000000e+00 0.000000000000000e+00 0.000000000000000e+00
0.000000000000000e+00 0.000000000000000e+00 0.000000000000000e+00
0.000000000000000e+00 0.000000000000000e+00 0.000000000000000e+00
0.000000000000000e+00 0.000000000000000e+00 0.000000000000000e+00
0.000000000000000e+00 0.000000000000000e+00 0.000000000000000e+00
0.000000000000000e+00 0.000000000000000e+00 0.000000000000000e+00
0.000000000000000e+00 0.000000000000000e+00 0.000000000000000e+00
0.000000000000000e+00 0.000000000000000e+00 0.000000000000000e+00
0.000000000000000e+00 0.000000000000000e+00 0.000000000000000e+00
0.000000000000000e+00 0.000000000000000e+00 0.000000000000000e+00
0.000000000000000e+00 0.000000000000000e+00 0.000000000000000e+00
0.000000000000000e+00 0.000000000000000e+00 0.000000000000000e+00
0.000000000000000e+00 0.000000000000000e+00 0.000000000000000e+00
1.335769268003484e-16 -1.062506982942510e-16 -9.744336730745805e-03
-5.637620393600581e-18 -2.103497684180955e-16 -9.744336730745887e-03
4.020318812597640e-17 -2.018087081351974e-16 -9.744336730745937e-03
-1.166645907191083e-16 -9.716703269861663e-17 -9.744336730746031e-03
3.602380793266095e-17 -2.340729519858968e-17 -6.496224487167205e-03
2.187506925757498e-17 -1.349322674846135e-16 -6.496224487167199e-03
-7.310966753692936e-17 -1.254589781547557e-16 -6.496224487167405e-03
-4.012047613070075e-17 -3.589409822072839e-17 -6.496224487167415e-03
-5.637620393600581e-18 -2.103497684180955e-16 -9.744336730745887e-03
-1.592622105758647e-17 -2.184012337827371e-16 -9.744336730745826e-03
-4.215795989778561e-18 -2.385319220446042e-16 -9.744336730745977e-03
4.020318812597640e-17 -2.018087081351974e-16 -9.744336730745937e-03
2.187506925757498e-17 -1.349322674846135e-16 -6.496224487167199e-03
-4.228499787518179e-17 -1.120539358960395e-16 -6.496224487167239e-03
2.877977122832503e-17 -1.311673616248137e-16 -6.496224487167445e-03
-7.310966753692936e-17 -1.254589781547557e-16 -6.496224487167405e-03
-1.592622105758647e-17 -2.184012337827371e-16 -9.744336730745826e-03
3.489640311218302e-17 -2.413908837988572e-16 -9.744336730745855e-03
6.891844189053852e-17 -1.686746052852674e-16 -9.744336730745989e-03
-4.215795989778561e-18 -2.385319220446042e-16 -9.744336730745977e-03
-4.228499787518179e-17 -1.120539358960395e-16 -6.496224487167239e-03
1.033279862132645e-17 -7.742585057431754e-17 -6.496224487167197e-03
5.753258046561887e-17 -8.937135898990341e-17 -6.496224487167417e-03
2.877977122832503e-17 -1.311673616248137e-16 -6.496224487167445e-03
3.489640311218302e-17 -2.413908837988572e-16 -9.744336730745855e-03
-3.040668086099006e-18 -2.176921062303457e-16 -9.744336730745854e-03
2.331503164655854e-16 -1.420055210948922e-16 -9.744336730746050e-03
6.891844189053852e-17 -1.686746052852674e-16 -9.744336730745989e-03
1.033279862132645e-17 -7.742585057431754e-17 -6.496224487167197e-03
1.573355681099223e-17 -7.277882619686362e-17 -6.496224487167224e-03
5.424354749133749e-17 -2.977849640934793e-17 -6.496224487167465e-03
5.753258046561887e-17 -8.937135898990341e-17 -6.496224487167417e-03
-3.040668086099006e-18 -2.176921062303457e-16 -9.744336730745854e-03
1.464117993642820e-17 -1.103284977132807e-16 -9.744336730746027e-03
7.629737789536472e-17 -7.148447902055400e-17 -9.744336730746012e-03
2.331503164655854e-16 -1.420055210948922e-16 -9.744336730746050e-03
1.573355681099223e-17 -7.277882619686362e-17 -6.496224487167224e-03
-5.539257541040088e-17 -7.088499865823365e-17 -6.496224487167378e-03
7.516971304200476e-17 -4.618481731366610e-17 -6.496224487167480e-03
5.424354749133749e-17 -2.977849640934793e-17 -6.496224487167465e-03
1.464117993642820e-17 -1.103284977132807e-16 -9.744336730746027e-03
3.103060087183767e-17 -1.136819683239250e-16 -9.744336730745968e-03
1.377828185693659e-16 -8.651511103583738e-18 -9.744336730746079e-03
7.629737789536472e-17 -7.148447902055400e-17 -9.744336730746012e-03
-5.539257541040088e-17 -7.088499865823365e-17 -6.496224487167378e-03
2.437455551930046e-17 6.054364048096661e-18 -6.496224487167305e-03
1.685702350279797e-16 -4.992858665213117e-17 -6.496224487167495e-03
7.516971304200476e-17 -4.618481731366610e-17 -6.496224487167480e-03
3.602380793266095e-17 -2.340729519858968e-17 -6.496224487167205e-03
2.187506925757498e-17 -1.349322674846135e-16 -6.496224487167199e-03
-7.310966753692936e-17 -1.254589781547557e-16 -6.496224487167405e-03
-4.012047613070075e-17 -3.589409822072839e-17 -6.496224487167415e-03
9.377504663284765e-17 -1.303895530391998e-17 -3.248112243578558e-03
8.565018307931501e-17 -6.179031815449104e-17 -3.248112243578555e-03
-4.363996620621289e-17 -7.078037805592269e-17 -3.248112243578682e-03
-3.456445546588706e-18 -7.040946956818485e-18 -3.248112243578577e-03
2.187506925757498e-17 -1.349322674846135e-16 -6.496224487167199e-03
-4.228499787518179e-17 -1.120539358960395e-16 -6.496224487167239e-03
2.877977122832503e-17 -1.311673616248137e-16 -6.496224487167445e-03
-7.310966753692936e-17 -1.254589781547557e-16 -6.496224487167405e-03
8.565018307931501e-17 -6.179031815449104e-17 -3.248112243578555e-03
-9.928669958480193e-18 -1.619006724390243e-17 -3.248112243578587e-03
3.348744588839340e-17 -3.844101462202817e-17 -3.248112243578643e-03
-4.363996620621289e-17 -7.078037805592269e-17 -3.248112243578682e-03
-4.228499787518179e-17 -1.120539358960395e-16 -6.496224487167239e-03
1.033279862132645e-17 -7.742585057431754e-17 -6.496224487167197e-03
5.753258046561887e-17 -8.937135898990341e-17 -6.496224487167417e-03
2.877977122832503e-17 -1.311673616248137e-16 -6.496224487167445e-03
-9.928669958480193e-18 -1.619006724390243e-17 -3.248112243578587e-03
9.896511210357124e-21 -5.604469938797635e-17 -3.248112243578603e-03
1.829032478374888e-17 -1.591106779613866e-17 -3.248112243578682e-03
3.348744588839340e-17 -3.844101462202817e-17 -3.248112243578643e-03
1.033279862132645e-17 -7.742585057431754e-17 -6.496224487167197e-03
1.573355681099223e-17 -7.277882619686362e-17 -6.496224487167224e-03
5.424354749133749e-17 -2.977849640934793e-17 -6.496224487167465e-03
5.753258046561887e-17 -8.937135898990341e-17 -6.496224487167417e-03
9.896511210357124e-21 -5.604469938797635e-17 -3.248112243578603e-03
3.619256324283760e-18 -2.342000919287713e-18 -3.248112243578596e-03
4.004216184947091e-17 -8.347733571625201e-18 -3.248112243578748e-03
1.829032478374888e-17 -1.591106779613866e-17 -3.248112243578682e-03
1.573355681099223e-17 -7.277882619686362e-17 -6.496224487167224e-03
-5.539257541040088e-17 -7.088499865823365e-17 -6.496224487167378e-03
7.516971304200476e-17 -4.618481731366610e-17 -6.496224487167480e-03
5.424354749133749e-17 -2.977849640934793e-17 -6.496224487167465e-03
3.619256324283760e-18 -2.342000919287713e-18 -3.248112243578596e-03
-4.827706023697089e-17 -3.808042302995529e-17 -3.248112243578718e-03
-1.730573720977790e-17 -2.027809061244169e-17 -3.248112243578613e-03
4.004216184947091e-17 -8.347733571625201e-18 -3.248112243578748e-03
-5.539257541040088e-17 -7.088499865823365e-17 -6.496224487167378e-03
2.437455551930046e-17 6.054364048096661e-18 -6.496224487167305e-03
1.685702350279797e-16 -4.992858665213117e-17 -6.496224487167495e-03
7.516971304200476e-17 -4.618481731366610e-17 -6.496224487167480e-03
-4.827706023697089e-17 -3.808042302995529e-17 -3.248112243578718e-03
5.006587416810822e-17 -6.082904252992644e-17 -3.248112243578597e-03
6.396972406341522e-18 8.393699155799813e-17 -3.248112243578769e-03
-1.730573720977790e-17 -2.027809061244169e-17 -3.248112243578613e-03
9.377504663284765e-17 -1.303895530391998e-17 -3.248112243578558e-03
8.565018307931501e-17 -6.179031815449104e-17 -3.248112243578555e-03
-4.363996620621289e-17 -7.078037805592269e-17 -3.248112243578682e-03
-3.456445546588706e-18 -7.040946956818485e-18 -3.248112243578577e-03
0.000000000000000e+00 0.000000000000000e+00 0.000000000000000e+00
0.000000000000000e+00 0.000000000000000e+00 0.000000000000000e+00
0.000000000000000e+00 0.000000000000000e+00 0.000000000000000e+00
0.000000000000000e+00 0.000000000000000e+00 0.000000000000000e+00
8.565018307931501e-17 -6.179031815449104e-17 -3.248112243578555e-03
-9.928669958480193e-18 -1.619006724390243e-17 -3.248112243578587e-03
3.348744588839340e-17 -3.844101462202817e-17 -3.248112243578643e-03
-4.363996620621289e-17 -7.078037805592269e-17 -3.248112243578682e-03
0.000000000000000e+00 0.000000000000000e+00 0.000000000000000e+00
0.000000000000000e+00 0.000000000000000e+00 0.000000000000000e+00
0.000000000000000e+00 0.000000000000000e+00 0.000000000000000e+00
0.000000000000000e+00 0.000000000000000e+00 0.000000000000000e+00
-9.928669958480193e-18 -1.619006724390243e-17 -3.248112243578587e-03
9.896511210357124e-21 -5.604469938797635e-17 -3.248112243578603e-03
1.829032478374888e-17 -1.591106779613866e-17 -3.248112243578682e-03
3.348744588839340e-17 -3.844101462202817e-17 -3.248112243578643e-03
0.000000000000000e+00 0.000000000000000e+00 0.000000000000000e+00
0.000000000000000e+00 0.000000000000000e+00 0.000000000000000e+00
0.000000000000000e+00 0.000000000000000e+00 0.000000000000000e+00
0.000000000000000e+00 0.000000000000000e+00 0.000000000000000e+00
9.896511210357124e-21 -5.604469938797635e-17 -3.248112243578603e-03
3.619256324283760e-18 -2.342000919287713e-18 -3.248112243578596e-03
4.004216184947091e-17 -8.347733571625201e-18 -3.248112243578748e-03
1.829032478374888e-17 -1.591106779613866e-17 -3.248112243578682e-03
0.000000000000000e+00 0.000000000000000e+00 0.000000000000000e+00
0.000000000000000e+00 0.000000000000000e+00 0.000000000000000e+00
0.000000000000000e+00 0.000000000000000e+00 0.000000000000000e+00
0.000000000000000e+00 0.000000000000000e+00 0.000000000000000e+00
3.619256324283760e-18 -2.342000919287713e-18 -3.248112243578596e-03
-4.827706023697089e-17 -3.808042302995529e-17 -3.248112243578718e-03
-1.730573720977790e-17 -2.027809061244169e-17 -3.248112243578613e-03
4.004216184947091e-17 -8.347733571625201e-18 -3.248112243578748e-03
0.000000000000000e+00 0.000000000000000e+00 0.000000000000000e+00
0.000000000000000e+00 0.000000000000000e+00 0.000000000000000e+00
0.000000000000000e+00 0.000000000000000e+00 0.000000000000000e+00
0.000000000000000e+00 0.000000000000000e+00 0.000000000000000e+00
-4.827706023697089e-17 -3.808042302995529e-17 -3.248112243578718e-03
5.006587416810822e-17 -6.082904252992644e-17 -3.248112243578597e-03
6.396972406341522e-18 8.393699155799813e-17 -3.248112243578769e-03
-1.730573720977790e-17 -2.027809061244169e-17 -3.248112243578613e-03
0.000000000000000e+00 0.000000000000000e+00 0.000000000000000e+00
0.000000000000000e+00 0.000000000000000e+00 0.000000000000000e+00
0.000000000000000e+00 0.000000000000000e+00 0.000000000000000e+00
0.000000000000000e+00 0.000000000000000e+00 0.000000000000000e+00
        </DataArray>
      </PointData>

    </Piece>
  </UnstructuredGrid>
</VTKFile>
