<?xml version="1.0" ?> 
<!-- 
# vtk DataFile Version 3.0
-->
<VTKFile type="UnstructuredGrid" version="0.1" compressor="vtkZLibDataCompressor" byte_order="LittleEndian">
  <UnstructuredGrid>
    <FieldData>
      <DataArray type="Float64" Name="TIME" NumberOfTuples="1" format="ascii">
1.000000000000000e+00 
      </DataArray>
    </FieldData>

    <Piece NumberOfPoints="84" NumberOfCells="14" >
      <Points>
        <DataArray type="Float64" NumberOfComponents="3" format="ascii">
-3.563187485637225e+00 1.068258759939500e+00 1.068258759939500e+00
-3.465954674199407e+00 1.084828310296529e+00 1.084828310296529e+00
-3.368721862761588e+00 1.101397860653559e+00 1.101397860653559e+00
-3.271489051323769e+00 1.117967411010588e+00 1.117967411010588e+00
-3.174256239885951e+00 1.134536961367617e+00 1.134536961367617e+00
-3.077023428448132e+00 1.151106511724647e+00 1.151106511724647e+00
-3.077023428448132e+00 1.151106511724647e+00 1.151106511724647e+00
-2.980103121584248e+00 1.168568058054294e+00 1.168568058054294e+00
-2.883182814720364e+00 1.186029604383941e+00 1.186029604383941e+00
-2.786262507856480e+00 1.203491150713588e+00 1.203491150713588e+00
-2.689342200992596e+00 1.220952697043236e+00 1.220952697043236e+00
-2.592421894128712e+00 1.238414243372883e+00 1.238414243372883e+00
-2.592421894128712e+00 1.238414243372883e+00 1.238414243372883e+00
-2.495815633140785e+00 1.256725752132817e+00 1.256725752132817e+00
-2.399209372152858e+00 1.275037260892752e+00 1.275037260892752e+00
-2.302603111164930e+00 1.293348769652686e+00 1.293348769652686e+00
-2.205996850177003e+00 1.311660278412621e+00 1.311660278412621e+00
-2.109390589189076e+00 1.329971787172555e+00 1.329971787172555e+00
-2.109390589189076e+00 1.329971787172555e+00 1.329971787172555e+00
-2.013098029625602e+00 1.349092045227504e+00 1.349092045227504e+00
-1.916805470062128e+00 1.368212303282453e+00 1.368212303282453e+00
-1.820512910498654e+00 1.387332561337402e+00 1.387332561337402e+00
-1.724220350935180e+00 1.406452819392351e+00 1.406452819392351e+00
-1.627927791371707e+00 1.425573077447300e+00 1.425573077447300e+00
-1.627927791371707e+00 1.425573077447300e+00 1.425573077447300e+00
-1.531946836898016e+00 1.445461681382571e+00 1.445461681382571e+00
-1.435965882424324e+00 1.465350285317842e+00 1.465350285317842e+00
-1.339984927950633e+00 1.485238889253113e+00 1.485238889253114e+00
-1.244003973476942e+00 1.505127493188385e+00 1.505127493188385e+00
-1.148023019003251e+00 1.525016097123656e+00 1.525016097123656e+00
-1.148023019003251e+00 1.525016097123656e+00 1.525016097123656e+00
-1.052349948131881e+00 1.545633438534865e+00 1.545633438534865e+00
-9.566768772605106e-01 1.566250779946074e+00 1.566250779946074e+00
-8.610038063891405e-01 1.586868121357283e+00 1.586868121357283e+00
-7.653307355177704e-01 1.607485462768492e+00 1.607485462768493e+00
-6.696576646464003e-01 1.628102804179701e+00 1.628102804179702e+00
-6.696576646464003e-01 1.628102804179701e+00 1.628102804179702e+00
-5.742872505737346e-01 1.649410051397741e+00 1.649410051397741e+00
-4.789168365010691e-01 1.670717298615780e+00 1.670717298615780e+00
-3.835464224284034e-01 1.692024545833819e+00 1.692024545833819e+00
-2.881760083557378e-01 1.713331793051858e+00 1.713331793051859e+00
-1.928055942830722e-01 1.734639040269898e+00 1.734639040269898e+00
-1.928055942830722e-01 1.734639040269898e+00 1.734639040269898e+00
-9.773121810062108e-02 1.756598116938382e+00 1.756598116938383e+00
-2.656841918169908e-03 1.778557193606867e+00 1.778557193606867e+00
9.241753426428119e-02 1.800516270275352e+00 1.800516270275352e+00
1.874919104467324e-01 1.822475346943837e+00 1.822475346943837e+00
2.825662866291835e-01 1.844434423612321e+00 1.844434423612322e+00
2.825662866291835e-01 1.844434423612321e+00 1.844434423612322e+00
3.773525290631965e-01 1.867007984495485e+00 1.867007984495485e+00
4.721387714972095e-01 1.889581545378648e+00 1.889581545378648e+00
5.669250139312225e-01 1.912155106261811e+00 1.912155106261811e+00
6.617112563652355e-01 1.934728667144974e+00 1.934728667144975e+00
7.564974987992485e-01 1.957302228028138e+00 1.957302228028138e+00
7.564974987992485e-01 1.957302228028138e+00 1.957302228028138e+00
8.510046960292441e-01 1.980453632390413e+00 1.980453632390414e+00
9.455118932592397e-01 2.003605036752688e+00 2.003605036752689e+00
1.040019090489235e+00 2.026756441114963e+00 2.026756441114964e+00
1.134526287719231e+00 2.049907845477239e+00 2.049907845477239e+00
1.229033484949226e+00 2.073059249839514e+00 2.073059249839515e+00
1.229033484949226e+00 2.073059249839514e+00 2.073059249839515e+00
1.323271814824313e+00 2.096752532703842e+00 2.096752532703843e+00
1.417510144699401e+00 2.120445815568170e+00 2.120445815568170e+00
1.511748474574488e+00 2.144139098432498e+00 2.144139098432498e+00
1.605986804449575e+00 2.167832381296825e+00 2.167832381296825e+00
1.700225134324662e+00 2.191525664161153e+00 2.191525664161153e+00
1.700225134324662e+00 2.191525664161153e+00 2.191525664161153e+00
1.794205774318629e+00 2.215725505721315e+00 2.215725505721315e+00
1.888186414312595e+00 2.239925347281477e+00 2.239925347281477e+00
1.982167054306561e+00 2.264125188841638e+00 2.264125188841639e+00
2.076147694300527e+00 2.288325030401800e+00 2.288325030401801e+00
2.170128334294493e+00 2.312524871961962e+00 2.312524871961963e+00
2.170128334294493e+00 2.312524871961962e+00 2.312524871961963e+00
2.263863376925044e+00 2.337196565394929e+00 2.337196565394930e+00
2.357598419555595e+00 2.361868258827896e+00 2.361868258827897e+00
2.451333462186145e+00 2.386539952260863e+00 2.386539952260864e+00
2.545068504816696e+00 2.411211645693830e+00 2.411211645693831e+00
2.638803547447246e+00 2.435883339126797e+00 2.435883339126798e+00
2.638803547447246e+00 2.435883339126797e+00 2.435883339126798e+00
2.732305920473938e+00 2.460992757024089e+00 2.460992757024089e+00
2.825808293500630e+00 2.486102174921380e+00 2.486102174921380e+00
2.919310666527322e+00 2.511211592818671e+00 2.511211592818672e+00
3.012813039554014e+00 2.536321010715962e+00 2.536321010715963e+00
3.106315412580706e+00 2.561430428613254e+00 2.561430428613254e+00
        </DataArray>
      </Points>

      <Cells>
        <DataArray type="Int32" Name="connectivity" format="ascii">
0 1 2 3 4 5 6 7 8 9 10 11 12 13 14 15 16 17 18 19 20 21 22 23 24 25 26 27 28 29 30 31 32 33 34 35 36 37 38 39 40 41 42 43 44 45 46 47 48 49 50 51 52 53 54 55 56 57 58 59 60 61 62 63 64 65 66 67 68 69 70 71 72 73 74 75 76 77 78 79 80 81 82 83 
        </DataArray>
        <DataArray type="Int32" Name="offsets" format="ascii">
6 12 18 24 30 36 42 48 54 60 66 72 78 84 
        </DataArray>
        <DataArray type="UInt8" Name="types" format="ascii">
4 4 4 4 4 4 4 4 4 4 4 4 4 4 
        </DataArray>
      </Cells>

  <PointData>
        <DataArray type="Float64" Name="base_vector_1" NumberOfComponents="3" format="ascii">
9.737679046682460e-01 1.608975882945634e-01 1.608975882945634e-01
9.731598099308165e-01 1.627267407886872e-01 1.627267407886872e-01
9.725448433451819e-01 1.645547442079620e-01 1.645547442079620e-01
9.719230092538532e-01 1.663815856441668e-01 1.663815856441668e-01
9.712943120478352e-01 1.682072521972856e-01 1.682072521972856e-01
9.706587561665960e-01 1.700317309755987e-01 1.700317309755988e-01
9.706587561665960e-01 1.700317309755987e-01 1.700317309755988e-01
9.700443690189229e-01 1.717759036283609e-01 1.717759036283609e-01
9.694237136889373e-01 1.735189663085123e-01 1.735189663085123e-01
9.687967941871578e-01 1.752609077528211e-01 1.752609077528211e-01
9.681636145645802e-01 1.770017167053005e-01 1.770017167053005e-01
9.675241789126517e-01 1.787413819172818e-01 1.787413819172818e-01
9.675241789126517e-01 1.787413819172817e-01 1.787413819172817e-01
9.669074857876483e-01 1.804022088664779e-01 1.804022088664779e-01
9.662850908065705e-01 1.820619719833575e-01 1.820619719833575e-01
9.656569976396833e-01 1.837206614802930e-01 1.837206614802930e-01
9.650232099908534e-01 1.853782675759878e-01 1.853782675759879e-01
9.643837315975288e-01 1.870347804955344e-01 1.870347804955345e-01
9.643837315975288e-01 1.870347804955344e-01 1.870347804955345e-01
9.637684406843404e-01 1.886138817013147e-01 1.886138817013147e-01
9.631479784748358e-01 1.901919708608083e-01 1.901919708608083e-01
9.625223482982319e-01 1.917690395064557e-01 1.917690395064557e-01
9.618915535114749e-01 1.933450791761731e-01 1.933450791761732e-01
9.612555974992232e-01 1.949200814133980e-01 1.949200814133980e-01
9.612555974992232e-01 1.949200814133979e-01 1.949200814133980e-01
9.606451533092504e-01 1.964190538408211e-01 1.964190538408212e-01
9.600300341600188e-01 1.979170703990856e-01 1.979170703990857e-01
9.594102430449925e-01 1.994141237981258e-01 1.994141237981259e-01
9.587857829803719e-01 2.009102067525632e-01 2.009102067525632e-01
9.581566570050786e-01 2.024053119817414e-01 2.024053119817415e-01
9.581566570050786e-01 2.024053119817414e-01 2.024053119817415e-01
9.575542544900671e-01 2.038257217673614e-01 2.038257217673615e-01
9.569476406354455e-01 2.052452351240515e-01 2.052452351240516e-01
9.563368181091112e-01 2.066638458087682e-01 2.066638458087683e-01
9.557217895974722e-01 2.080815475824382e-01 2.080815475824382e-01
9.551025578054342e-01 2.094983342099850e-01 2.094983342099851e-01
9.551025578054342e-01 2.094983342099850e-01 2.094983342099851e-01
9.545111559747594e-01 2.108417097252443e-01 2.108417097252444e-01
9.539159751660033e-01 2.121842505030626e-01 2.121842505030627e-01
9.533170177355293e-01 2.135259512282248e-01 2.135259512282249e-01
9.527142860546527e-01 2.148668065888416e-01 2.148668065888417e-01
9.521077825096316e-01 2.162068112763703e-01 2.162068112763705e-01
9.521077825096316e-01 2.162068112763704e-01 2.162068112763705e-01
9.515301175047552e-01 2.174746370055445e-01 2.174746370055446e-01
9.509490760323505e-01 2.187416910344470e-01 2.187416910344471e-01
9.503646601542203e-01 2.200079688669861e-01 2.200079688669862e-01
9.497768719441415e-01 2.212734660098243e-01 2.212734660098243e-01
9.491857134878580e-01 2.225381779723942e-01 2.225381779723942e-01
9.491857134878580e-01 2.225381779723941e-01 2.225381779723942e-01
9.486243110813335e-01 2.237318891278861e-01 2.237318891278861e-01
9.480599062169122e-01 2.249248921573375e-01 2.249248921573376e-01
9.474925006809720e-01 2.261171832848160e-01 2.261171832848161e-01
9.469220962693889e-01 2.273087587366422e-01 2.273087587366423e-01
9.463486947875300e-01 2.284996147414020e-01 2.284996147414021e-01
9.463486947875300e-01 2.284996147414020e-01 2.284996147414021e-01
9.458058822820131e-01 2.296205925442475e-01 2.296205925442476e-01
9.452604141163661e-01 2.307409256119902e-01 2.307409256119904e-01
9.447122918221696e-01 2.318606107989278e-01 2.318606107989279e-01
9.441615169384567e-01 2.329796449611770e-01 2.329796449611771e-01
9.436080910117086e-01 2.340980249566823e-01 2.340980249566825e-01
9.436080910117086e-01 2.340980249566823e-01 2.340980249566824e-01
9.430860085213165e-01 2.351475925151385e-01 2.351475925151386e-01
9.425615911817342e-01 2.361965779059438e-01 2.361965779059439e-01
9.420348402912901e-01 2.372449785320686e-01 2.372449785320687e-01
9.415057571540900e-01 2.382927917979303e-01 2.382927917979304e-01
9.409743430800138e-01 2.393400151094009e-01 2.393400151094009e-01
9.409743430800137e-01 2.393400151094010e-01 2.393400151094010e-01
9.404749541821873e-01 2.403194338334008e-01 2.403194338334008e-01
9.399735264180380e-01 2.412983315661736e-01 2.412983315661736e-01
9.394700608746165e-01 2.422767061855559e-01 2.422767061855559e-01
9.389645586433917e-01 2.432545555705182e-01 2.432545555705182e-01
9.384570208202476e-01 2.442318776011697e-01 2.442318776011697e-01
9.384570208202476e-01 2.442318776011696e-01 2.442318776011696e-01
9.379821225711176e-01 2.451423440952022e-01 2.451423440952022e-01
9.375054577013007e-01 2.460523488815689e-01 2.460523488815689e-01
9.370270271085605e-01 2.469618902463426e-01 2.469618902463426e-01
9.365468316939858e-01 2.478709664764684e-01 2.478709664764684e-01
9.360648723619895e-01 2.487795758597680e-01 2.487795758597681e-01
9.360648723619895e-01 2.487795758597682e-01 2.487795758597682e-01
9.356161046722330e-01 2.496222192413541e-01 2.496222192413541e-01
9.351658198920251e-01 2.504644578634627e-01 2.504644578634627e-01
9.347140187514972e-01 2.513062903604144e-01 2.513062903604145e-01
9.342607019832394e-01 2.521477153671878e-01 2.521477153671878e-01
9.338058703222998e-01 2.529887315194218e-01 2.529887315194219e-01
        </DataArray>
        <DataArray type="Float64" Name="base_vector_2" NumberOfComponents="3" format="ascii">
-1.608975882945634e-01 9.868839523341231e-01 -1.311604766587697e-02
-1.627267407886872e-01 9.865799049654083e-01 -1.342009503459177e-02
-1.645547442079620e-01 9.862724216725910e-01 -1.372757832740906e-02
-1.663815856441668e-01 9.859615046269266e-01 -1.403849537307341e-02
-1.682072521972856e-01 9.856471560239176e-01 -1.435284397608238e-02
-1.700317309755987e-01 9.853293780832980e-01 -1.467062191670201e-02
-1.700317309755987e-01 9.853293780832980e-01 -1.467062191670202e-02
-1.717759036283609e-01 9.850221845094614e-01 -1.497781549053858e-02
-1.735189663085123e-01 9.847118568444687e-01 -1.528814315553134e-02
-1.752609077528211e-01 9.843983970935789e-01 -1.560160290642108e-02
-1.770017167053005e-01 9.840818072822901e-01 -1.591819271770989e-02
-1.787413819172818e-01 9.837620894563258e-01 -1.623791054367416e-02
-1.787413819172817e-01 9.837620894563258e-01 -1.623791054367415e-02
-1.804022088664779e-01 9.834537428938241e-01 -1.654625710617583e-02
-1.820619719833575e-01 9.831425454032853e-01 -1.685745459671473e-02
-1.837206614802930e-01 9.828284988198416e-01 -1.717150118015839e-02
-1.853782675759878e-01 9.825116049954268e-01 -1.748839500457327e-02
-1.870347804955344e-01 9.821918657987644e-01 -1.780813420123560e-02
-1.870347804955344e-01 9.821918657987644e-01 -1.780813420123560e-02
-1.886138817013147e-01 9.818842203421702e-01 -1.811577965782982e-02
-1.901919708608083e-01 9.815739892374179e-01 -1.842601076258208e-02
-1.917690395064557e-01 9.812611741491160e-01 -1.873882585088405e-02
-1.933450791761731e-01 9.809457767557375e-01 -1.905422324426253e-02
-1.949200814133980e-01 9.806277987496116e-01 -1.937220125038841e-02
-1.949200814133979e-01 9.806277987496116e-01 -1.937220125038840e-02
-1.964190538408211e-01 9.803225766546252e-01 -1.967742334537480e-02
-1.979170703990856e-01 9.800150170800094e-01 -1.998498291999064e-02
-1.994141237981258e-01 9.797051215224962e-01 -2.029487847750380e-02
-2.009102067525632e-01 9.793928914901859e-01 -2.060710850981411e-02
-2.024053119817414e-01 9.790783285025393e-01 -2.092167149746072e-02
-2.024053119817414e-01 9.790783285025393e-01 -2.092167149746072e-02
-2.038257217673614e-01 9.787771272450336e-01 -2.122287275496644e-02
-2.052452351240515e-01 9.784738203177227e-01 -2.152617968227730e-02
-2.066638458087682e-01 9.781684090545556e-01 -2.183159094544440e-02
-2.080815475824382e-01 9.778608947987362e-01 -2.213910520126389e-02
-2.094983342099850e-01 9.775512789027171e-01 -2.244872109728291e-02
-2.094983342099850e-01 9.775512789027171e-01 -2.244872109728291e-02
-2.108417097252443e-01 9.772555779873797e-01 -2.274442201262028e-02
-2.121842505030626e-01 9.769579875830017e-01 -2.304201241699834e-02
-2.135259512282248e-01 9.766585088677646e-01 -2.334149113223536e-02
-2.148668065888416e-01 9.763571430273263e-01 -2.364285697267364e-02
-2.162068112763703e-01 9.760538912548158e-01 -2.394610874518422e-02
-2.162068112763704e-01 9.760538912548158e-01 -2.394610874518423e-02
-2.174746370055445e-01 9.757650587523776e-01 -2.423494124762240e-02
-2.187416910344470e-01 9.754745380161752e-01 -2.452546198382479e-02
-2.200079688669861e-01 9.751823300771101e-01 -2.481766992288989e-02
-2.212734660098243e-01 9.748884359720708e-01 -2.511156402792923e-02
-2.225381779723942e-01 9.745928567439290e-01 -2.540714325607102e-02
-2.225381779723941e-01 9.745928567439290e-01 -2.540714325607100e-02
-2.237318891278861e-01 9.743121555406667e-01 -2.568784445933326e-02
-2.249248921573375e-01 9.740299531084561e-01 -2.597004689154396e-02
-2.261171832848160e-01 9.737462503404860e-01 -2.625374965951397e-02
-2.273087587366422e-01 9.734610481346945e-01 -2.653895186530552e-02
-2.284996147414020e-01 9.731743473937651e-01 -2.682565260623498e-02
-2.284996147414020e-01 9.731743473937651e-01 -2.682565260623498e-02
-2.296205925442475e-01 9.729029411410066e-01 -2.709705885899343e-02
-2.307409256119902e-01 9.726302070581830e-01 -2.736979294181696e-02
-2.318606107989278e-01 9.723561459110848e-01 -2.764385408891520e-02
-2.329796449611770e-01 9.720807584692284e-01 -2.791924153077163e-02
-2.340980249566823e-01 9.718040455058543e-01 -2.819595449414568e-02
-2.340980249566823e-01 9.718040455058543e-01 -2.819595449414568e-02
-2.351475925151385e-01 9.715430042606583e-01 -2.845699573934174e-02
-2.361965779059438e-01 9.712807955908671e-01 -2.871920440913289e-02
-2.372449785320686e-01 9.710174201456451e-01 -2.898257985435493e-02
-2.382927917979303e-01 9.707528785770451e-01 -2.924712142295498e-02
-2.393400151094009e-01 9.704871715400069e-01 -2.951282845999312e-02
-2.393400151094010e-01 9.704871715400069e-01 -2.951282845999314e-02
-2.403194338334008e-01 9.702374770910936e-01 -2.976252290890636e-02
-2.412983315661736e-01 9.699867632090190e-01 -3.001323679098104e-02
-2.422767061855559e-01 9.697350304373082e-01 -3.026496956269176e-02
-2.432545555705182e-01 9.694822793216958e-01 -3.051772067830415e-02
-2.442318776011697e-01 9.692285104101238e-01 -3.077148958987622e-02
-2.442318776011696e-01 9.692285104101238e-01 -3.077148958987622e-02
-2.451423440952022e-01 9.689910612855588e-01 -3.100893871444124e-02
-2.460523488815689e-01 9.687527288506503e-01 -3.124727114934965e-02
-2.469618902463426e-01 9.685135135542802e-01 -3.148648644571980e-02
-2.478709664764684e-01 9.682734158469929e-01 -3.172658415300714e-02
-2.487795758597680e-01 9.680324361809948e-01 -3.196756381900524e-02
-2.487795758597682e-01 9.680324361809948e-01 -3.196756381900526e-02
-2.496222192413541e-01 9.678080523361164e-01 -3.219194766388353e-02
-2.504644578634627e-01 9.675829099460125e-01 -3.241709005398748e-02
-2.513062903604144e-01 9.673570093757485e-01 -3.264299062425145e-02
-2.521477153671878e-01 9.671303509916197e-01 -3.286964900838030e-02
-2.529887315194218e-01 9.669029351611499e-01 -3.309706483885011e-02
        </DataArray>
        <DataArray type="Float64" Name="base_vector_3" NumberOfComponents="3" format="ascii">
-1.608975882945634e-01 -1.311604766587696e-02 9.868839523341231e-01
-1.627267407886872e-01 -1.342009503459176e-02 9.865799049654083e-01
-1.645547442079620e-01 -1.372757832740905e-02 9.862724216725910e-01
-1.663815856441668e-01 -1.403849537307339e-02 9.859615046269266e-01
-1.682072521972856e-01 -1.435284397608237e-02 9.856471560239176e-01
-1.700317309755988e-01 -1.467062191670200e-02 9.853293780832980e-01
-1.700317309755988e-01 -1.467062191670200e-02 9.853293780832980e-01
-1.717759036283609e-01 -1.497781549053857e-02 9.850221845094614e-01
-1.735189663085123e-01 -1.528814315553132e-02 9.847118568444687e-01
-1.752609077528211e-01 -1.560160290642107e-02 9.843983970935789e-01
-1.770017167053005e-01 -1.591819271770987e-02 9.840818072822901e-01
-1.787413819172818e-01 -1.623791054367415e-02 9.837620894563258e-01
-1.787413819172817e-01 -1.623791054367413e-02 9.837620894563258e-01
-1.804022088664779e-01 -1.654625710617582e-02 9.834537428938241e-01
-1.820619719833575e-01 -1.685745459671471e-02 9.831425454032853e-01
-1.837206614802930e-01 -1.717150118015837e-02 9.828284988198416e-01
-1.853782675759879e-01 -1.748839500457325e-02 9.825116049954268e-01
-1.870347804955345e-01 -1.780813420123558e-02 9.821918657987644e-01
-1.870347804955345e-01 -1.780813420123558e-02 9.821918657987644e-01
-1.886138817013147e-01 -1.811577965782980e-02 9.818842203421702e-01
-1.901919708608083e-01 -1.842601076258206e-02 9.815739892374179e-01
-1.917690395064557e-01 -1.873882585088403e-02 9.812611741491160e-01
-1.933450791761732e-01 -1.905422324426251e-02 9.809457767557375e-01
-1.949200814133980e-01 -1.937220125038839e-02 9.806277987496116e-01
-1.949200814133980e-01 -1.937220125038838e-02 9.806277987496116e-01
-1.964190538408212e-01 -1.967742334537478e-02 9.803225766546252e-01
-1.979170703990857e-01 -1.998498291999062e-02 9.800150170800094e-01
-1.994141237981259e-01 -2.029487847750378e-02 9.797051215224962e-01
-2.009102067525632e-01 -2.060710850981408e-02 9.793928914901859e-01
-2.024053119817415e-01 -2.092167149746070e-02 9.790783285025393e-01
-2.024053119817415e-01 -2.092167149746069e-02 9.790783285025393e-01
-2.038257217673615e-01 -2.122287275496641e-02 9.787771272450335e-01
-2.052452351240516e-01 -2.152617968227728e-02 9.784738203177227e-01
-2.066638458087683e-01 -2.183159094544437e-02 9.781684090545556e-01
-2.080815475824382e-01 -2.213910520126386e-02 9.778608947987362e-01
-2.094983342099851e-01 -2.244872109728288e-02 9.775512789027171e-01
-2.094983342099851e-01 -2.244872109728288e-02 9.775512789027171e-01
-2.108417097252444e-01 -2.274442201262025e-02 9.772555779873797e-01
-2.121842505030627e-01 -2.304201241699831e-02 9.769579875830017e-01
-2.135259512282249e-01 -2.334149113223534e-02 9.766585088677646e-01
-2.148668065888417e-01 -2.364285697267362e-02 9.763571430273263e-01
-2.162068112763705e-01 -2.394610874518420e-02 9.760538912548158e-01
-2.162068112763705e-01 -2.394610874518421e-02 9.760538912548158e-01
-2.174746370055446e-01 -2.423494124762238e-02 9.757650587523776e-01
-2.187416910344471e-01 -2.452546198382477e-02 9.754745380161752e-01
-2.200079688669862e-01 -2.481766992288987e-02 9.751823300771101e-01
-2.212734660098243e-01 -2.511156402792921e-02 9.748884359720708e-01
-2.225381779723942e-01 -2.540714325607099e-02 9.745928567439290e-01
-2.225381779723942e-01 -2.540714325607099e-02 9.745928567439290e-01
-2.237318891278861e-01 -2.568784445933324e-02 9.743121555406667e-01
-2.249248921573376e-01 -2.597004689154394e-02 9.740299531084561e-01
-2.261171832848161e-01 -2.625374965951396e-02 9.737462503404860e-01
-2.273087587366423e-01 -2.653895186530551e-02 9.734610481346945e-01
-2.284996147414021e-01 -2.682565260623497e-02 9.731743473937650e-01
-2.284996147414021e-01 -2.682565260623498e-02 9.731743473937650e-01
-2.296205925442476e-01 -2.709705885899342e-02 9.729029411410065e-01
-2.307409256119904e-01 -2.736979294181695e-02 9.726302070581830e-01
-2.318606107989279e-01 -2.764385408891519e-02 9.723561459110848e-01
-2.329796449611771e-01 -2.791924153077161e-02 9.720807584692284e-01
-2.340980249566825e-01 -2.819595449414567e-02 9.718040455058543e-01
-2.340980249566824e-01 -2.819595449414567e-02 9.718040455058543e-01
-2.351475925151386e-01 -2.845699573934172e-02 9.715430042606583e-01
-2.361965779059439e-01 -2.871920440913286e-02 9.712807955908671e-01
-2.372449785320687e-01 -2.898257985435491e-02 9.710174201456451e-01
-2.382927917979304e-01 -2.924712142295496e-02 9.707528785770451e-01
-2.393400151094009e-01 -2.951282845999310e-02 9.704871715400069e-01
-2.393400151094010e-01 -2.951282845999311e-02 9.704871715400069e-01
-2.403194338334008e-01 -2.976252290890633e-02 9.702374770910936e-01
-2.412983315661736e-01 -3.001323679098102e-02 9.699867632090190e-01
-2.422767061855559e-01 -3.026496956269173e-02 9.697350304373082e-01
-2.432545555705182e-01 -3.051772067830413e-02 9.694822793216958e-01
-2.442318776011697e-01 -3.077148958987620e-02 9.692285104101238e-01
-2.442318776011696e-01 -3.077148958987620e-02 9.692285104101238e-01
-2.451423440952022e-01 -3.100893871444120e-02 9.689910612855588e-01
-2.460523488815689e-01 -3.124727114934962e-02 9.687527288506503e-01
-2.469618902463426e-01 -3.148648644571975e-02 9.685135135542802e-01
-2.478709664764684e-01 -3.172658415300710e-02 9.682734158469929e-01
-2.487795758597681e-01 -3.196756381900518e-02 9.680324361809948e-01
-2.487795758597682e-01 -3.196756381900522e-02 9.680324361809948e-01
-2.496222192413541e-01 -3.219194766388350e-02 9.678080523361164e-01
-2.504644578634627e-01 -3.241709005398746e-02 9.675829099460125e-01
-2.513062903604145e-01 -3.264299062425142e-02 9.673570093757485e-01
-2.521477153671878e-01 -3.286964900838027e-02 9.671303509916197e-01
-2.529887315194219e-01 -3.309706483885008e-02 9.669029351611499e-01
        </DataArray>
        <DataArray type="Float64" Name="displacement" NumberOfComponents="3" format="ascii">
-6.318748563722476e-02 5.682587599394997e-01 5.682587599394997e-01
-6.595467419940615e-02 5.848283102965293e-01 5.848283102965293e-01
-6.872186276158754e-02 6.013978606535586e-01 6.013978606535586e-01
-7.148905132376893e-02 6.179674110105879e-01 6.179674110105879e-01
-7.425623988595076e-02 6.345369613676173e-01 6.345369613676173e-01
-7.702342844813215e-02 6.511065117246466e-01 6.511065117246466e-01
-7.702342844813215e-02 6.511065117246466e-01 6.511065117246466e-01
-8.010312158424782e-02 6.685680580542939e-01 6.685680580542939e-01
-8.318281472036437e-02 6.860296043839411e-01 6.860296043839411e-01
-8.626250785648004e-02 7.034911507135884e-01 7.034911507135884e-01
-8.934220099259660e-02 7.209526970432356e-01 7.209526970432356e-01
-9.242189412871227e-02 7.384142433728829e-01 7.384142433728829e-01
-9.242189412871227e-02 7.384142433728829e-01 7.384142433728829e-01
-9.581563314078512e-02 7.567257521328172e-01 7.567257521328172e-01
-9.920937215285797e-02 7.750372608927518e-01 7.750372608927518e-01
-1.026031111649299e-01 7.933487696526862e-01 7.933487696526862e-01
-1.059968501770028e-01 8.116602784126208e-01 8.116602784126208e-01
-1.093905891890756e-01 8.299717871725552e-01 8.299717871725552e-01
-1.093905891890756e-01 8.299717871725552e-01 8.299717871725552e-01
-1.130980296256017e-01 8.490920452275041e-01 8.490920452275041e-01
-1.168054700621279e-01 8.682123032824529e-01 8.682123032824531e-01
-1.205129104986542e-01 8.873325613374019e-01 8.873325613374021e-01
-1.242203509351802e-01 9.064528193923507e-01 9.064528193923509e-01
-1.279277913717065e-01 9.255730774472997e-01 9.255730774472999e-01
-1.279277913717065e-01 9.255730774472997e-01 9.255730774472999e-01
-1.319468368980155e-01 9.454616813825709e-01 9.454616813825711e-01
-1.359658824243244e-01 9.653502853178422e-01 9.653502853178422e-01
-1.399849279506329e-01 9.852388892531132e-01 9.852388892531136e-01
-1.440039734769418e-01 1.005127493188385e+00 1.005127493188385e+00
-1.480230190032510e-01 1.025016097123656e+00 1.025016097123656e+00
-1.480230190032510e-01 1.025016097123656e+00 1.025016097123656e+00
-1.523499481318810e-01 1.045633438534865e+00 1.045633438534865e+00
-1.566768772605106e-01 1.066250779946074e+00 1.066250779946074e+00
-1.610038063891406e-01 1.086868121357283e+00 1.086868121357283e+00
-1.653307355177704e-01 1.107485462768492e+00 1.107485462768493e+00
-1.696576646464003e-01 1.128102804179701e+00 1.128102804179702e+00
-1.696576646464003e-01 1.128102804179701e+00 1.128102804179702e+00
-1.742872505737346e-01 1.149410051397741e+00 1.149410051397741e+00
-1.789168365010691e-01 1.170717298615780e+00 1.170717298615780e+00
-1.835464224284034e-01 1.192024545833819e+00 1.192024545833819e+00
-1.881760083557378e-01 1.213331793051858e+00 1.213331793051859e+00
-1.928055942830722e-01 1.234639040269898e+00 1.234639040269898e+00
-1.928055942830722e-01 1.234639040269898e+00 1.234639040269898e+00
-1.977312181006211e-01 1.256598116938382e+00 1.256598116938383e+00
-2.026568419181699e-01 1.278557193606867e+00 1.278557193606867e+00
-2.075824657357188e-01 1.300516270275352e+00 1.300516270275352e+00
-2.125080895532676e-01 1.322475346943837e+00 1.322475346943837e+00
-2.174337133708165e-01 1.344434423612321e+00 1.344434423612322e+00
-2.174337133708165e-01 1.344434423612321e+00 1.344434423612322e+00
-2.226474709368036e-01 1.367007984495485e+00 1.367007984495485e+00
-2.278612285027904e-01 1.389581545378648e+00 1.389581545378648e+00
-2.330749860687775e-01 1.412155106261811e+00 1.412155106261811e+00
-2.382887436347645e-01 1.434728667144974e+00 1.434728667144975e+00
-2.435025012007515e-01 1.457302228028138e+00 1.457302228028138e+00
-2.435025012007515e-01 1.457302228028138e+00 1.457302228028138e+00
-2.489953039707560e-01 1.480453632390413e+00 1.480453632390414e+00
-2.544881067407605e-01 1.503605036752688e+00 1.503605036752689e+00
-2.599809095107648e-01 1.526756441114963e+00 1.526756441114964e+00
-2.654737122807693e-01 1.549907845477239e+00 1.549907845477239e+00
-2.709665150507738e-01 1.573059249839514e+00 1.573059249839515e+00
-2.709665150507738e-01 1.573059249839514e+00 1.573059249839515e+00
-2.767281851756866e-01 1.596752532703842e+00 1.596752532703843e+00
-2.824898553005994e-01 1.620445815568170e+00 1.620445815568170e+00
-2.882515254255122e-01 1.644139098432498e+00 1.644139098432498e+00
-2.940131955504248e-01 1.667832381296825e+00 1.667832381296825e+00
-2.997748656753376e-01 1.691525664161153e+00 1.691525664161153e+00
-2.997748656753376e-01 1.691525664161153e+00 1.691525664161153e+00
-3.057942256813715e-01 1.715725505721315e+00 1.715725505721315e+00
-3.118135856874056e-01 1.739925347281477e+00 1.739925347281477e+00
-3.178329456934388e-01 1.764125188841638e+00 1.764125188841639e+00
-3.238523056994729e-01 1.788325030401800e+00 1.788325030401801e+00
-3.298716657055065e-01 1.812524871961962e+00 1.812524871961963e+00
-3.298716657055065e-01 1.812524871961962e+00 1.812524871961963e+00
-3.361366230749558e-01 1.837196565394929e+00 1.837196565394930e+00
-3.424015804444056e-01 1.861868258827896e+00 1.861868258827897e+00
-3.486665378138545e-01 1.886539952260863e+00 1.886539952260864e+00
-3.549314951833047e-01 1.911211645693830e+00 1.911211645693831e+00
-3.611964525527536e-01 1.935883339126797e+00 1.935883339126798e+00
-3.611964525527536e-01 1.935883339126797e+00 1.935883339126798e+00
-3.676940795260624e-01 1.960992757024089e+00 1.960992757024089e+00
-3.741917064993698e-01 1.986102174921380e+00 1.986102174921380e+00
-3.806893334726786e-01 2.011211592818671e+00 2.011211592818672e+00
-3.871869604459865e-01 2.036321010715962e+00 2.036321010715963e+00
-3.936845874192945e-01 2.061430428613254e+00 2.061430428613254e+00
        </DataArray>
  </PointData>
  <CellData>
        <DataArray type="Float64" Name="axial_strain_GPs" format="ascii">
1.659249368226590e-04
1.677991181932015e-04
1.695642696182276e-04
1.712248816454487e-04
1.727852472228619e-04