<?xml version="1.0" ?> 
<!-- 
# vtk DataFile Version 3.0
-->
<VTKFile type="UnstructuredGrid" version="0.1" compressor="vtkZLibDataCompressor" byte_order="LittleEndian">
  <UnstructuredGrid>
    <FieldData>
      <DataArray type="Float64" Name="TIME" NumberOfTuples="1" format="ascii">
1.000000000000000e+00 
      </DataArray>
    </FieldData>

    <Piece NumberOfPoints="78" NumberOfCells="13" >
      <Points>
        <DataArray type="Float64" NumberOfComponents="3" format="ascii">
-1.000000000000000e+01 5.000000000000000e-01 5.000000000000000e-01
-9.899993332928215e+00 5.007916249376592e-01 5.007916249376592e-01
-9.799986665856430e+00 5.015832498753181e-01 5.015832498753181e-01
-9.699979998784645e+00 5.023748748129773e-01 5.023748748129773e-01
-9.599973331712862e+00 5.031664997506363e-01 5.031664997506363e-01
-9.499966664641077e+00 5.039581246882954e-01 5.039581246882954e-01
-9.499966664641077e+00 5.039581246882954e-01 5.039581246882954e-01
-9.400006192876166e+00 5.062566506286186e-01 5.062566506286186e-01
-9.300045721111253e+00 5.085551765689416e-01 5.085551765689416e-01
-9.200085249346341e+00 5.108537025092648e-01 5.108537025092648e-01
-9.100124777581428e+00 5.131522284495879e-01 5.131522284495879e-01
-9.000164305816515e+00 5.154507543899109e-01 5.154507543899109e-01
-9.000164305816515e+00 5.154507543899109e-01 5.154507543899109e-01
-8.900291694817334e+00 5.192054745506970e-01 5.192054745506970e-01
-8.800419083818152e+00 5.229601947114830e-01 5.229601947114830e-01
-8.700546472818971e+00 5.267149148722690e-01 5.267149148722690e-01
-8.600673861819788e+00 5.304696350330550e-01 5.304696350330550e-01
-8.500801250820606e+00 5.342243551938410e-01 5.342243551938410e-01
-8.500801250820606e+00 5.342243551938410e-01 5.342243551938410e-01
-8.401053864459609e+00 5.393848583946580e-01 5.393848583946580e-01
-8.301306478098610e+00 5.445453615954750e-01 5.445453615954750e-01
-8.201559091737611e+00 5.497058647962918e-01 5.497058647962918e-01
-8.101811705376612e+00 5.548663679971088e-01 5.548663679971088e-01
-8.002064319015613e+00 5.600268711979257e-01 5.600268711979257e-01
-8.002064319015613e+00 5.600268711979257e-01 5.600268711979257e-01
-7.902475444354835e+00 5.665431477232155e-01 5.665431477232155e-01
-7.802886569694055e+00 5.730594242485052e-01 5.730594242485052e-01
-7.703297695033277e+00 5.795757007737949e-01 5.795757007737949e-01
-7.603708820372498e+00 5.860919772990847e-01 5.860919772990847e-01
-7.504119945711720e+00 5.926082538243744e-01 5.926082538243744e-01
-7.504119945711720e+00 5.926082538243744e-01 5.926082538243744e-01
-7.404719013294711e+00 6.004307867445038e-01 6.004307867445038e-01
-7.305318080877702e+00 6.082533196646331e-01 6.082533196646331e-01
-7.205917148460692e+00 6.160758525847625e-01 6.160758525847625e-01
-7.106516216043683e+00 6.238983855048917e-01 6.238983855048919e-01
-7.007115283626674e+00 6.317209184250211e-01 6.317209184250212e-01
-7.007115283626674e+00 6.317209184250211e-01 6.317209184250212e-01
-6.907928082380209e+00 6.408007614806674e-01 6.408007614806677e-01
-6.808740881133744e+00 6.498806045363139e-01 6.498806045363140e-01
-6.709553679887279e+00 6.589604475919603e-01 6.589604475919604e-01
-6.610366478640813e+00 6.680402906476067e-01 6.680402906476068e-01
-6.511179277394349e+00 6.771201337032531e-01 6.771201337032532e-01
-6.511179277394349e+00 6.771201337032531e-01 6.771201337032532e-01
-6.412228163407738e+00 6.874089768190592e-01 6.874089768190593e-01
-6.313277049421126e+00 6.976978199348652e-01 6.976978199348653e-01
-6.214325935434514e+00 7.079866630506714e-01 7.079866630506715e-01
-6.115374821447903e+00 7.182755061664774e-01 7.182755061664775e-01
-6.016423707461291e+00 7.285643492822835e-01 7.285643492822836e-01
-6.016423707461291e+00 7.285643492822835e-01 7.285643492822836e-01
-5.917727806066728e+00 7.400145727304990e-01 7.400145727304992e-01
-5.819031904672164e+00 7.514647961787145e-01 7.514647961787146e-01
-5.720336003277600e+00 7.629150196269300e-01 7.629150196269301e-01
-5.621640101883037e+00 7.743652430751455e-01 7.743652430751455e-01
-5.522944200488474e+00 7.858154665233610e-01 7.858154665233610e-01
-5.522944200488474e+00 7.858154665233610e-01 7.858154665233610e-01
-5.424519601204174e+00 7.983801847087908e-01 7.983801847087908e-01
-5.326095001919872e+00 8.109449028942206e-01 8.109449028942206e-01
-5.227670402635571e+00 8.235096210796503e-01 8.235096210796504e-01
-5.129245803351270e+00 8.360743392650801e-01 8.360743392650802e-01
-5.030821204066969e+00 8.486390574505099e-01 8.486390574505100e-01
-5.030821204066969e+00 8.486390574505099e-01 8.486390574505100e-01
-4.932681148086942e+00 8.622721532358590e-01 8.622721532358590e-01
-4.834541092106914e+00 8.759052490212079e-01 8.759052490212080e-01
-4.736401036126887e+00 8.895383448065570e-01 8.895383448065570e-01
-4.638260980146860e+00 9.031714405919060e-01 9.031714405919060e-01
-4.540120924166833e+00 9.168045363772550e-01 9.168045363772550e-01
-4.540120924166833e+00 9.168045363772550e-01 9.168045363772550e-01
-4.442275984188284e+00 9.314606868140507e-01 9.314606868140507e-01
-4.344431044209735e+00 9.461168372508462e-01 9.461168372508463e-01
-4.246586104231186e+00 9.607729876876419e-01 9.607729876876420e-01
-4.148741164252637e+00 9.754291381244374e-01 9.754291381244375e-01
-4.050896224274088e+00 9.900852885612330e-01 9.900852885612332e-01
-4.050896224274088e+00 9.900852885612330e-01 9.900852885612332e-01
-3.953354476546715e+00 1.005719982836886e+00 1.005719982836887e+00
-3.855812728819342e+00 1.021354677112540e+00 1.021354677112540e+00
-3.758270981091970e+00 1.036989371388193e+00 1.036989371388193e+00
-3.660729233364597e+00 1.052624065663846e+00 1.052624065663846e+00
-3.563187485637225e+00 1.068258759939500e+00 1.068258759939500e+00
        </DataArray>
      </Points>

      <Cells>
        <DataArray type="Int32" Name="connectivity" format="ascii">
0 1 2 3 4 5 6 7 8 9 10 11 12 13 14 15 16 17 18 19 20 21 22 23 24 25 26 27 28 29 30 31 32 33 34 35 36 37 38 39 40 41 42 43 44 45 46 47 48 49 50 51 52 53 54 55 56 57 58 59 60 61 62 63 64 65 66 67 68 69 70 71 72 73 74 75 76 77 
        </DataArray>
        <DataArray type="Int32" Name="offsets" format="ascii">
6 12 18 24 30 36 42 48 54 60 66 72 78 
        </DataArray>
        <DataArray type="UInt8" Name="types" format="ascii">
4 4 4 4 4 4 4 4 4 4 4 4 4 
        </DataArray>
      </Cells>

  <PointData>
        <DataArray type="Float64" Name="base_vector_1" NumberOfComponents="3" format="ascii">
1.000000000000000e+00 0.000000000000000e+00 0.000000000000000e+00
9.999906051963856e-01 3.065087190146501e-03 3.065087190146501e-03
9.999624209620672e-01 6.130116788508576e-03 6.130116788508576e-03
9.999154478266153e-01 9.195031204383929e-03 9.195031204383929e-03
9.998496866726370e-01 1.225977284923450e-02 1.225977284923450e-02
9.997651387357582e-01 1.532428413776851e-02 1.532428413776851e-02
9.997651387357582e-01 1.532428413776851e-02 1.532428413776851e-02
9.996654831349745e-01 1.828827258816470e-02 1.828827258816470e-02
9.995482530288196e-01 2.125193952366391e-02 2.125193952366391e-02
9.994134504782439e-01 2.421523284185651e-02 2.421523284185651e-02
9.992610778531286e-01 2.717810044690125e-02 2.717810044690125e-02
9.990911378322431e-01 3.014049025044103e-02 3.014049025044103e-02
9.990911378322431e-01 3.014049025044105e-02 3.014049025044105e-02
9.989101574992130e-01 3.300376679181974e-02 3.300376679181975e-02
9.987127656127197e-01 3.586650109916555e-02 3.586650109916555e-02
9.984989654158052e-01 3.872864613930260e-02 3.872864613930260e-02
9.982687604210911e-01 4.159015488873632e-02 4.159015488873632e-02
9.980221544107210e-01 4.445098033442608e-02 4.445098033442609e-02
9.980221544107210e-01 4.445098033442604e-02 4.445098033442605e-02
9.977683322141364e-01 4.721416752745217e-02 4.721416752745218e-02
9.974992094071691e-01 4.997663069912128e-02 4.997663069912129e-02
9.972147901167719e-01 5.273832748752295e-02 5.273832748752295e-02
9.969150787044674e-01 5.549921554249915e-02 5.549921554249915e-02
9.966000797662797e-01 5.825925252629365e-02 5.825925252629365e-02
9.966000797662797e-01 5.825925252629366e-02 5.825925252629366e-02
9.962814525997239e-01 6.092317787912943e-02 6.092317787912943e-02
9.959485840681754e-01 6.358623236439014e-02 6.358623236439014e-02
9.956014789298302e-01 6.624837791499061e-02 6.624837791499062e-02
9.952401421463895e-01 6.890957647683849e-02 6.890957647683850e-02
9.948645788829890e-01 7.156979000937808e-02 7.156979000937809e-02
9.948645788829890e-01 7.156979000937812e-02 7.156979000937815e-02
9.944887469937793e-01 7.413545745034178e-02 7.413545745034179e-02
9.940996818918805e-01 7.670013840424943e-02 7.670013840424944e-02
9.936973887544063e-01 7.926379874404975e-02 7.926379874404976e-02
9.932818729344897e-01 8.182640435627221e-02 8.182640435627223e-02
9.928531399612122e-01 8.438792114148110e-02 8.438792114148111e-02
9.928531399612122e-01 8.438792114148107e-02 8.438792114148107e-02
9.924272780099195e-01 8.685648467967740e-02 8.685648467967742e-02
9.919891407551142e-01 8.932397389259561e-02 8.932397389259564e-02
9.915387336161031e-01 9.179035825993491e-02 9.179035825993494e-02
9.910760621639588e-01 9.425560727506040e-02 9.425560727506042e-02
9.906011321214506e-01 9.671969044538020e-02 9.671969044538026e-02
9.906011321214506e-01 9.671969044538020e-02 9.671969044538024e-02
9.901320016331198e-01 9.909242993789125e-02 9.909242993789129e-02
9.896515045593018e-01 1.014640318623062e-01 1.014640318623062e-01
9.891596464160403e-01 1.038344689929460e-01 1.038344689929461e-01
9.886564328498021e-01 1.062037141175035e-01 1.062037141175035e-01
9.881418696374129e-01 1.085717400373554e-01 1.085717400373554e-01
9.881418696374129e-01 1.085717400373554e-01 1.085717400373554e-01
9.876358325417018e-01 1.108500389708085e-01 1.108500389708085e-01
9.871192896025578e-01 1.131271587518700e-01 1.131271587518700e-01
9.865922463146369e-01 1.154030751579843e-01 1.154030751579843e-01
9.860547082842913e-01 1.176777639793965e-01 1.176777639793965e-01
9.855066812295096e-01 1.199512010194099e-01 1.199512010194099e-01
9.855066812295096e-01 1.199512010194099e-01 1.199512010194099e-01
9.849697142210289e-01 1.221365262060142e-01 1.221365262060142e-01
9.844230554790269e-01 1.243206496148906e-01 1.243206496148906e-01
9.838667103824212e-01 1.265035497550818e-01 1.265035497550818e-01
9.833006844054395e-01 1.286852051476671e-01 1.286852051476671e-01
9.827249831175655e-01 1.308655943259734e-01 1.308655943259735e-01
9.827249831175655e-01 1.308655943259735e-01 1.308655943259736e-01
9.821626925994752e-01 1.329594774090000e-01 1.329594774090000e-01
9.815914792675278e-01 1.350521525733421e-01 1.350521525733421e-01
9.810113483111184e-01 1.371436008073320e-01 1.371436008073320e-01
9.804223050006573e-01 1.392338031104481e-01 1.392338031104481e-01
9.798243546875227e-01 1.413227404934883e-01 1.413227404934883e-01
9.798243546875227e-01 1.413227404934883e-01 1.413227404934883e-01
9.792419920908505e-01 1.433267611542636e-01 1.433267611542637e-01
9.786514319227877e-01 1.453295819774440e-01 1.453295819774441e-01
9.780526791271165e-01 1.473311861967277e-01 1.473311861967277e-01
9.774457387162024e-01 1.493315570559975e-01 1.493315570559975e-01
9.768306157709524e-01 1.513306778094612e-01 1.513306778094612e-01
9.768306157709524e-01 1.513306778094612e-01 1.513306778094612e-01
9.762330930691037e-01 1.532464485668929e-01 1.532464485668929e-01
9.756280559218035e-01 1.551610397268631e-01 1.551610397268631e-01
9.750155089862577e-01 1.570744365520197e-01 1.570744365520197e-01
9.743954569774781e-01 1.589866243142039e-01 1.589866243142039e-01
9.737679046682460e-01 1.608975882945634e-01 1.608975882945634e-01
        </DataArray>
        <DataArray type="Float64" Name="base_vector_2" NumberOfComponents="3" format="ascii">
0.000000000000000e+00 1.000000000000000e+00 0.000000000000000e+00
-3.065087190146501e-03 9.999953025981928e-01 -4.697401807183934e-06
-6.130116788508576e-03 9.999812104810336e-01 -1.878951896640056e-05
-9.195031204383929e-03 9.999577239133077e-01 -4.227608669230345e-05
-1.225977284923450e-02 9.999248433363185e-01 -7.515666368150988e-05
-1.532428413776851e-02 9.998825693678791e-01 -1.174306321208927e-04
-1.532428413776851e-02 9.998825693678791e-01 -1.174306321208927e-04
-1.828827258816470e-02 9.998327415674872e-01 -1.672584325127556e-04
-2.125193952366391e-02 9.997741265144098e-01 -2.258734855902275e-04
-2.421523284185651e-02 9.997067252391220e-01 -2.932747608780320e-04
-2.717810044690125e-02 9.996305389265643e-01 -3.694610734357122e-04
-3.014049025044103e-02 9.995455689161216e-01 -4.544310838784617e-04
-3.014049025044105e-02 9.995455689161216e-01 -4.544310838784618e-04
-3.300376679181974e-02 9.994550787496065e-01 -5.449212503935433e-04
-3.586650109916555e-02 9.993563828063599e-01 -6.436171936401723e-04
-3.872864613930260e-02 9.992494827079026e-01 -7.505172920973972e-04
-4.159015488873632e-02 9.991343802105456e-01 -8.656197894544351e-04
-4.445098033442608e-02 9.990110772053604e-01 -9.889227946395258e-04
-4.445098033442604e-02 9.990110772053605e-01 -9.889227946395253e-04
-4.721416752745217e-02 9.988841661070682e-01 -1.115833892931777e-03
-4.997663069912128e-02 9.987496047035845e-01 -1.250395296415476e-03
-5.273832748752295e-02 9.986073950583860e-01 -1.392604941614019e-03
-5.549921554249915e-02 9.984575393522337e-01 -1.542460647766300e-03
-5.825925252629365e-02 9.983000398831399e-01 -1.699960116860144e-03
-5.825925252629366e-02 9.983000398831399e-01 -1.699960116860144e-03
-6.092317787912943e-02 9.981407262998619e-01 -1.859273700138049e-03
-6.358623236439014e-02 9.979742920340877e-01 -2.025707965912269e-03
-6.624837791499061e-02 9.978007394649151e-01 -2.199260535084892e-03
-6.890957647683849e-02 9.976200710731947e-01 -2.379928926805273e-03
-7.156979000937808e-02 9.974322894414945e-01 -2.567710558505500e-03
-7.156979000937812e-02 9.974322894414945e-01 -2.567710558505502e-03
-7.413545745034178e-02 9.972443734968897e-01 -2.755626503110364e-03
-7.670013840424943e-02 9.970498409459403e-01 -2.950159054059762e-03
-7.926379874404975e-02 9.968486943772031e-01 -3.151305622796884e-03
-8.182640435627221e-02 9.966409364672448e-01 -3.359063532755169e-03
-8.438792114148110e-02 9.964265699806061e-01 -3.573430019393923e-03
-8.438792114148107e-02 9.964265699806061e-01 -3.573430019393922e-03
-8.685648467967740e-02 9.962136390049597e-01 -3.786360995040283e-03
-8.932397389259561e-02 9.959945703775571e-01 -4.005429622442896e-03
-9.179035825993491e-02 9.957693668080516e-01 -4.230633191948419e-03
-9.425560727506040e-02 9.955380310819794e-01 -4.461968918020595e-03
-9.671969044538020e-02 9.953005660607253e-01 -4.699433939274697e-03
-9.671969044538020e-02 9.953005660607253e-01 -4.699433939274700e-03
-9.909242993789125e-02 9.950660008165598e-01 -4.933999183440138e-03
-1.014640318623062e-01 9.948257522796509e-01 -5.174247720349088e-03
-1.038344689929460e-01 9.945798232080202e-01 -5.420176791979859e-03
-1.062037141175035e-01 9.943282164249010e-01 -5.671783575098974e-03
-1.085717400373554e-01 9.940709348187065e-01 -5.929065181293571e-03
-1.085717400373554e-01 9.940709348187065e-01 -5.929065181293573e-03
-1.108500389708085e-01 9.938179162708509e-01 -6.182083729149095e-03
-1.131271587518700e-01 9.935596448012789e-01 -6.440355198721095e-03
-1.154030751579843e-01 9.932961231573185e-01 -6.703876842681530e-03
-1.176777639793965e-01 9.930273541421457e-01 -6.972645857854327e-03
-1.199512010194099e-01 9.927533406147548e-01 -7.246659385245207e-03
-1.199512010194099e-01 9.927533406147548e-01 -7.246659385245206e-03
-1.221365262060142e-01 9.924848571105144e-01 -7.515142889485585e-03
-1.243206496148906e-01 9.922115277395135e-01 -7.788472260486569e-03
-1.265035497550818e-01 9.919333551912106e-01 -8.066644808789401e-03
-1.286852051476671e-01 9.916503422027197e-01 -8.349657797280271e-03
-1.308655943259734e-01 9.913624915587828e-01 -8.637508441217235e-03
-1.308655943259735e-01 9.913624915587828e-01 -8.637508441217240e-03
-1.329594774090000e-01 9.910813462997377e-01 -8.918653700262397e-03
-1.350521525733421e-01 9.907957396337639e-01 -9.204260366236106e-03
-1.371436008073320e-01 9.905056741555591e-01 -9.494325844440835e-03
-1.392338031104481e-01 9.902111525003287e-01 -9.788847499671342e-03
-1.413227404934883e-01 9.899121773437614e-01 -1.008782265623864e-02
-1.413227404934883e-01 9.899121773437614e-01 -1.008782265623864e-02
-1.433267611542636e-01 9.896209960454253e-01 -1.037900395457475e-02
-1.453295819774440e-01 9.893257159613938e-01 -1.067428403860616e-02
-1.473311861967277e-01 9.890263395635582e-01 -1.097366043644175e-02
-1.493315570559975e-01 9.887228693581013e-01 -1.127713064189877e-02
-1.513306778094612e-01 9.884153078854763e-01 -1.158469211452379e-02
-1.513306778094612e-01 9.884153078854763e-01 -1.158469211452379e-02
-1.532464485668929e-01 9.881165465345518e-01 -1.188345346544815e-02
-1.551610397268631e-01 9.878140279609017e-01 -1.218597203909829e-02
-1.570744365520197e-01 9.875077544931288e-01 -1.249224550687118e-02
-1.589866243142039e-01 9.871977284887391e-01 -1.280227151126095e-02
-1.608975882945634e-01 9.868839523341231e-01 -1.311604766587697e-02
        </DataArray>
        <DataArray type="Float64" Name="base_vector_3" NumberOfComponents="3" format="ascii">
0.000000000000000e+00 0.000000000000000e+00 1.000000000000000e+00
-3.065087190146501e-03 -4.697401807183711e-06 9.999953025981928e-01
-6.130116788508576e-03 -1.878951896640011e-05 9.999812104810336e-01
-9.195031204383929e-03 -4.227608669230277e-05 9.999577239133077e-01
-1.225977284923450e-02 -7.515666368150898e-05 9.999248433363185e-01
-1.532428413776851e-02 -1.174306321208916e-04 9.998825693678791e-01
-1.532428413776851e-02 -1.174306321208915e-04 9.998825693678791e-01
-1.828827258816470e-02 -1.672584325127542e-04 9.998327415674872e-01
-2.125193952366391e-02 -2.258734855902260e-04 9.997741265144098e-01
-2.421523284185651e-02 -2.932747608780303e-04 9.997067252391220e-01
-2.717810044690125e-02 -3.694610734357103e-04 9.996305389265643e-01
-3.014049025044103e-02 -4.544310838784596e-04 9.995455689161216e-01
-3.014049025044105e-02 -4.544310838784597e-04 9.995455689161216e-01
-3.300376679181975e-02 -5.449212503935409e-04 9.994550787496065e-01
-3.586650109916555e-02 -6.436171936401697e-04 9.993563828063599e-01
-3.872864613930260e-02 -7.505172920973944e-04 9.992494827079026e-01
-4.159015488873632e-02 -8.656197894544320e-04 9.991343802105456e-01
-4.445098033442609e-02 -9.889227946395227e-04 9.990110772053604e-01
-4.445098033442605e-02 -9.889227946395219e-04 9.990110772053605e-01
-4.721416752745218e-02 -1.115833892931774e-03 9.988841661070682e-01
-4.997663069912129e-02 -1.250395296415472e-03 9.987496047035845e-01
-5.273832748752295e-02 -1.392604941614015e-03 9.986073950583860e-01
-5.549921554249915e-02 -1.542460647766295e-03 9.984575393522337e-01
-5.825925252629365e-02 -1.699960116860139e-03 9.983000398831399e-01
-5.825925252629366e-02 -1.699960116860139e-03 9.983000398831399e-01
-6.092317787912943e-02 -1.859273700138045e-03 9.981407262998619e-01
-6.358623236439014e-02 -2.025707965912265e-03 9.979742920340877e-01
-6.624837791499062e-02 -2.199260535084888e-03 9.978007394649151e-01
-6.890957647683850e-02 -2.379928926805269e-03 9.976200710731947e-01
-7.156979000937809e-02 -2.567710558505496e-03 9.974322894414945e-01
-7.156979000937815e-02 -2.567710558505497e-03 9.974322894414945e-01
-7.413545745034179e-02 -2.755626503110359e-03 9.972443734968897e-01
-7.670013840424944e-02 -2.950159054059757e-03 9.970498409459403e-01
-7.926379874404976e-02 -3.151305622796878e-03 9.968486943772031e-01
-8.182640435627223e-02 -3.359063532755163e-03 9.966409364672448e-01
-8.438792114148111e-02 -3.573430019393917e-03 9.964265699806061e-01
-8.438792114148107e-02 -3.573430019393916e-03 9.964265699806061e-01
-8.685648467967742e-02 -3.786360995040277e-03 9.962136390049597e-01
-8.932397389259564e-02 -4.005429622442891e-03 9.959945703775571e-01
-9.179035825993494e-02 -4.230633191948414e-03 9.957693668080516e-01
-9.425560727506042e-02 -4.461968918020589e-03 9.955380310819794e-01
-9.671969044538026e-02 -4.699433939274692e-03 9.953005660607253e-01
-9.671969044538024e-02 -4.699433939274691e-03 9.953005660607253e-01
-9.909242993789129e-02 -4.933999183440129e-03 9.950660008165598e-01
-1.014640318623062e-01 -5.174247720349079e-03 9.948257522796509e-01
-1.038344689929461e-01 -5.420176791979850e-03 9.945798232080202e-01
-1.062037141175035e-01 -5.671783575098966e-03 9.943282164249010e-01
-1.085717400373554e-01 -5.929065181293562e-03 9.940709348187065e-01
-1.085717400373554e-01 -5.929065181293564e-03 9.940709348187065e-01
-1.108500389708085e-01 -6.182083729149086e-03 9.938179162708509e-01
-1.131271587518700e-01 -6.440355198721086e-03 9.935596448012789e-01
-1.154030751579843e-01 -6.703876842681521e-03 9.932961231573185e-01
-1.176777639793965e-01 -6.972645857854317e-03 9.930273541421457e-01
-1.199512010194099e-01 -7.246659385245197e-03 9.927533406147548e-01
-1.199512010194099e-01 -7.246659385245198e-03 9.927533406147548e-01
-1.221365262060142e-01 -7.515142889485576e-03 9.924848571105144e-01
-1.243206496148906e-01 -7.788472260486559e-03 9.922115277395135e-01
-1.265035497550818e-01 -8.066644808789391e-03 9.919333551912106e-01
-1.286852051476671e-01 -8.349657797280257e-03 9.916503422027197e-01
-1.308655943259735e-01 -8.637508441217221e-03 9.913624915587828e-01
-1.308655943259736e-01 -8.637508441217230e-03 9.913624915587828e-01
-1.329594774090000e-01 -8.918653700262387e-03 9.910813462997377e-01
-1.350521525733421e-01 -9.204260366236096e-03 9.907957396337639e-01
-1.371436008073320e-01 -9.494325844440824e-03 9.905056741555591e-01
-1.392338031104481e-01 -9.788847499671332e-03 9.902111525003287e-01
-1.413227404934883e-01 -1.008782265623863e-02 9.899121773437614e-01
-1.413227404934883e-01 -1.008782265623863e-02 9.899121773437614e-01
-1.433267611542637e-01 -1.037900395457474e-02 9.896209960454252e-01
-1.453295819774441e-01 -1.067428403860615e-02 9.893257159613938e-01
-1.473311861967277e-01 -1.097366043644174e-02 9.890263395635582e-01
-1.493315570559975e-01 -1.127713064189876e-02 9.887228693581013e-01
-1.513306778094612e-01 -1.158469211452378e-02 9.884153078854762e-01
-1.513306778094612e-01 -1.158469211452378e-02 9.884153078854762e-01
-1.532464485668929e-01 -1.188345346544814e-02 9.881165465345518e-01
-1.551610397268631e-01 -1.218597203909827e-02 9.878140279609017e-01
-1.570744365520197e-01 -1.249224550687117e-02 9.875077544931288e-01
-1.589866243142039e-01 -1.280227151126094e-02 9.871977284887391e-01
-1.608975882945634e-01 -1.311604766587696e-02 9.868839523341231e-01
        </DataArray>
        <DataArray type="Float64" Name="displacement" NumberOfComponents="3" format="ascii">
0.000000000000000e+00 0.000000000000000e+00 0.000000000000000e+00
6.667071785315670e-06 7.916249376591633e-04 7.916249376591633e-04
1.333414357063134e-05 1.583249875318105e-03 1.583249875318105e-03
2.000121535417065e-05 2.374874812977268e-03 2.374874812977268e-03
2.666828713770997e-05 3.166499750636320e-03 3.166499750636320e-03
3.333535892302564e-05 3.958124688295372e-03 3.958124688295372e-03
3.333535892302564e-05 3.958124688295372e-03 3.958124688295372e-03
-6.192876165656003e-06 6.256650628618576e-03 6.256650628618576e-03
-4.572111125256129e-05 8.555176568941558e-03 8.555176568941558e-03
-8.524934634124293e-05 1.085370250926476e-02 1.085370250926476e-02
-1.247775814281482e-04 1.315222844958785e-02 1.315222844958785e-02
-1.643058165150535e-04 1.545075438991095e-02 1.545075438991095e-02
-1.643058165150535e-04 1.545075438991095e-02 1.545075438991095e-02
-2.916948173332656e-04 1.920547455069699e-02 1.920547455069699e-02
-4.190838181514778e-04 2.296019471148303e-02 2.296019471148303e-02
-5.464728189714663e-04 2.671491487226896e-02 2.671491487226896e-02
-6.738618197879020e-04 3.046963503305500e-02 3.046963503305500e-02
-8.012508206061142e-04 3.422435519384104e-02 3.422435519384104e-02
-8.012508206061142e-04 3.422435519384104e-02 3.422435519384104e-02
-1.053864459608533e-03 3.938485839465800e-02 3.938485839465800e-02
-1.306478098609176e-03 4.454536159547495e-02 4.454536159547495e-02
-1.559091737611595e-03 4.970586479629180e-02 4.970586479629180e-02
-1.811705376612238e-03 5.486636799710876e-02 5.486636799710876e-02
-2.064319015612881e-03 6.002687119792571e-02 6.002687119792571e-02
-2.064319015612881e-03 6.002687119792571e-02 6.002687119792571e-02
-2.475444354834266e-03 6.654314772321546e-02 6.654314772321546e-02
-2.886569694055652e-03 7.305942424850520e-02 7.305942424850520e-02
-3.297695033277037e-03 7.957570077379494e-02 7.957570077379494e-02
-3.708820372498423e-03 8.609197729908469e-02 8.609197729908469e-02
-4.119945711719808e-03 9.260825382437443e-02 9.260825382437443e-02
-4.119945711719808e-03 9.260825382437443e-02 9.260825382437443e-02
-4.719013294710805e-03 1.004307867445038e-01 1.004307867445038e-01
-5.318080877700915e-03 1.082533196646331e-01 1.082533196646331e-01
-5.917148460691912e-03 1.160758525847625e-01 1.160758525847625e-01
-6.516216043683798e-03 1.238983855048917e-01 1.238983855048919e-01
-7.115283626673907e-03 1.317209184250211e-01 1.317209184250212e-01
-7.115283626673907e-03 1.317209184250211e-01 1.317209184250212e-01
-7.928082380209034e-03 1.408007614806674e-01 1.408007614806677e-01
-8.740881133743272e-03 1.498806045363139e-01 1.498806045363140e-01
-9.553679887278399e-03 1.589604475919603e-01 1.589604475919604e-01
-1.036647864081353e-02 1.680402906476067e-01 1.680402906476068e-01
-1.117927739434865e-02 1.771201337032531e-01 1.771201337032532e-01
-1.117927739434865e-02 1.771201337032531e-01 1.771201337032532e-01
-1.222816340773747e-02 1.874089768190592e-01 1.874089768190593e-01
-1.327704942112540e-02 1.976978199348652e-01 1.976978199348653e-01
-1.432593543451510e-02 2.079866630506714e-01 2.079866630506715e-01
-1.537482144790214e-02 2.182755061664774e-01 2.182755061664775e-01
-1.642370746129096e-02 2.285643492822835e-01 2.285643492822836e-01
-1.642370746129096e-02 2.285643492822835e-01 2.285643492822836e-01
-1.772780606672786e-02 2.400145727304990e-01 2.400145727304992e-01
-1.903190467216387e-02 2.514647961787145e-01 2.514647961787146e-01
-2.033600327759988e-02 2.629150196269300e-01 2.629150196269301e-01
-2.164010188303767e-02 2.743652430751455e-01 2.743652430751455e-01
-2.294420048847368e-02 2.858154665233610e-01 2.858154665233610e-01
-2.294420048847368e-02 2.858154665233610e-01 2.858154665233610e-01
-2.451960120417329e-02 2.983801847087908e-01 2.983801847087908e-01
-2.609500191987202e-02 3.109449028942206e-01 3.109449028942206e-01
-2.767040263557075e-02 3.235096210796503e-01 3.235096210796504e-01
-2.924580335127036e-02 3.360743392650801e-01 3.360743392650802e-01
-3.082120406696909e-02 3.486390574505099e-01 3.486390574505100e-01
-3.082120406696909e-02 3.486390574505099e-01 3.486390574505100e-01
-3.268114808694200e-02 3.622721532358590e-01 3.622721532358590e-01
-3.454109210691403e-02 3.759052490212079e-01 3.759052490212080e-01
-3.640103612688783e-02 3.895383448065570e-01 3.895383448065570e-01
-3.826098014685986e-02 4.031714405919060e-01 4.031714405919060e-01
-4.012092416683277e-02 4.168045363772550e-01 4.168045363772550e-01
-4.012092416683277e-02 4.168045363772550e-01 4.168045363772550e-01
-4.227598418828382e-02 4.314606868140507e-01 4.314606868140507e-01
-4.443104420973487e-02 4.461168372508462e-01 4.461168372508463e-01
-4.658610423118592e-02 4.607729876876419e-01 4.607729876876420e-01
-4.874116425263697e-02 4.754291381244374e-01 4.754291381244375e-01
-5.089622427408802e-02 4.900852885612330e-01 4.900852885612332e-01
-5.089622427408802e-02 4.900852885612330e-01 4.900852885612332e-01
-5.335447654671510e-02 5.057199828368864e-01 5.057199828368866e-01
-5.581272881934263e-02 5.213546771125397e-01 5.213546771125399e-01
-5.827098109196971e-02 5.369893713881930e-01 5.369893713881932e-01
-6.072923336459723e-02 5.526240656638464e-01 5.526240656638464e-01
-6.318748563722476e-02 5.682587599394997e-01 5.682587599394997e-01
        </DataArray>
  </PointData>
  <CellData>
        <DataArray type="Float64" Name="axial_strain_GPs" format="ascii">
1.292677414177490e-04
1.330472070288913e-04
1.366444775090514e-04
1.400657803791727e-04
1.433173268658994e-04
1.464052806150473e-04
1.493357302591036e-04
1.521146657075256e-04
1.547479577352906e-04
1.572413406099038e-04
1.596003974884130e-04
1.618305482440352e-04
1.639370395283279e-04
        </DataArray>
        <DataArray type="Float64" Name="cross_section_radius" format="ascii">
5.000000000000000e-01
5.000000000000000e-01
5.000000000000000e-01
5.000000000000000e-01
5.000000000000000e-01
5.000000000000000e-01
5.000000000000000e-01
5.000000000000000e-01
5.000000000000000e-01
5.000000000000000e-01
5.000000000000000e-01
5.000000000000000e-01
5.000000000000000e-01
        </DataArray>
        <DataArray type="Float64" Name="curvature_2_GPs" format="ascii">
-3.065096788813309e-02
-2.964828162206358e-02
-2.866136901801702e-02
-2.769011757951794e-02
-2.673437568939745e-02
-2.579395588075604e-02
-2.486863791514346e-02
-2.395817167066789e-02
-2.306227984399897e-02
-2.218066047123940e-02
-2.131298927345325e-02
-2.045892183325946e-02
-1.961809560937672e-02
        </DataArray>
        <DataArray type="Float64" Name="curvature_3_GPs" format="ascii">
3.065096788813309e-02
2.964828162206358e-02
2.866136901801701e-02
2.769011757951795e-02
2.673437568939742e-02
2.579395588075604e-02
2.486863791514340e-02
2.395817167066798e-02
2.306227984399888e-02
2.218066047123937e-02
2.131298927345325e-02
2.045892183325951e-02
1.961809560937677e-02
        </DataArray>
        <DataArray type="Float64" Name="element_ghosting" NumberOfComponents="3" format="ascii">
0.000000000000000e+00 0.000000000000000e+00 0.000000000000000e+00
0.000000000000000e+00 0.000000000000000e+00 0.000000000000000e+00
0.000000000000000e+00 0.000000000000000e+00 0.000000000000000e+00
0.000000000000000e+00 0.000000000000000e+00 0.000000000000000e+00
0.000000000000000e+00 0.000000000000000e+00 0.000000000000000e+00
0.000000000000000e+00 0.000000000000000e+00 0.000000000000000e+00
0.000000000000000e+00 0.000000000000000e+00 0.000000000000000e+00
0.000000000000000e+00 0.000000000000000e+00 0.000000000000000e+00