<?xml version="1.0" ?> 
<!-- 
# vtk DataFile Version 3.0
-->
<VTKFile type="UnstructuredGrid" version="0.1" compressor="vtkZLibDataCompressor" byte_order="LittleEndian">
  <UnstructuredGrid>
    <FieldData>
      <DataArray type="Float64" Name="TIME" NumberOfTuples="1" format="ascii">
1.000000000000000e+00 
      </DataArray>
    </FieldData>

    <Piece NumberOfPoints="78" NumberOfCells="13" >
      <Points>
        <DataArray type="Float64" NumberOfComponents="3" format="ascii">
3.106315412580706e+00 2.561430428613254e+00 2.561430428613254e+00
3.199598803660844e+00 2.586943988225561e+00 2.586943988225561e+00
3.292882194740983e+00 2.612457547837868e+00 2.612457547837868e+00
3.386165585821122e+00 2.637971107450174e+00 2.637971107450174e+00
3.479448976901261e+00 2.663484667062481e+00 2.663484667062481e+00
3.572732367981400e+00 2.688998226674788e+00 2.688998226674788e+00
3.572732367981400e+00 2.688998226674788e+00 2.688998226674788e+00
3.665811153464348e+00 2.714882854141518e+00 2.714882854141519e+00
3.758889938947297e+00 2.740767481608249e+00 2.740767481608249e+00
3.851968724430246e+00 2.766652109074980e+00 2.766652109074980e+00
3.945047509913195e+00 2.792536736541710e+00 2.792536736541710e+00
4.038126295396143e+00 2.818421364008441e+00 2.818421364008441e+00
4.038126295396143e+00 2.818421364008441e+00 2.818421364008441e+00
4.131015472938699e+00 2.844644457723301e+00 2.844644457723301e+00
4.223904650481254e+00 2.870867551438161e+00 2.870867551438161e+00
4.316793828023808e+00 2.897090645153020e+00 2.897090645153021e+00
4.409683005566364e+00 2.923313738867880e+00 2.923313738867881e+00
4.502572183108919e+00 2.949536832582740e+00 2.949536832582741e+00
4.502572183108919e+00 2.949536832582740e+00 2.949536832582741e+00
4.595287307797389e+00 2.976066225827859e+00 2.976066225827859e+00
4.688002432485859e+00 3.002595619072977e+00 3.002595619072978e+00
4.780717557174329e+00 3.029125012318096e+00 3.029125012318096e+00
4.873432681862798e+00 3.055654405563215e+00 3.055654405563215e+00
4.966147806551268e+00 3.082183798808333e+00 3.082183798808333e+00
4.966147806551268e+00 3.082183798808333e+00 3.082183798808333e+00
5.058704930219390e+00 3.108987721772712e+00 3.108987721772712e+00
5.151262053887512e+00 3.135791644737090e+00 3.135791644737091e+00
5.243819177555634e+00 3.162595567701469e+00 3.162595567701469e+00
5.336376301223757e+00 3.189399490665847e+00 3.189399490665848e+00
5.428933424891879e+00 3.216203413630226e+00 3.216203413630226e+00
5.428933424891879e+00 3.216203413630226e+00 3.216203413630226e+00
5.521349038327547e+00 3.243250454913294e+00 3.243250454913295e+00
5.613764651763216e+00 3.270297496196362e+00 3.270297496196363e+00
5.706180265198883e+00 3.297344537479431e+00 3.297344537479431e+00
5.798595878634552e+00 3.324391578762500e+00 3.324391578762500e+00
5.891011492070220e+00 3.351438620045568e+00 3.351438620045568e+00
5.891011492070220e+00 3.351438620045568e+00 3.351438620045568e+00
5.983302469807951e+00 3.378697687733321e+00 3.378697687733321e+00
6.075593447545681e+00 3.405956755421073e+00 3.405956755421073e+00
6.167884425283412e+00 3.433215823108826e+00 3.433215823108826e+00
6.260175403021142e+00 3.460474890796578e+00 3.460474890796579e+00
6.352466380758873e+00 3.487733958484331e+00 3.487733958484331e+00
6.352466380758873e+00 3.487733958484331e+00 3.487733958484331e+00
6.444649928158907e+00 3.515174240873784e+00 3.515174240873784e+00
6.536833475558941e+00 3.542614523263237e+00 3.542614523263238e+00
6.629017022958974e+00 3.570054805652691e+00 3.570054805652691e+00
6.721200570359009e+00 3.597495088042144e+00 3.597495088042144e+00
6.813384117759043e+00 3.624935370431597e+00 3.624935370431597e+00
6.813384117759043e+00 3.624935370431597e+00 3.624935370431597e+00
6.905477720077799e+00 3.652526296469081e+00 3.652526296469081e+00
6.997571322396555e+00 3.680117222506565e+00 3.680117222506565e+00
7.089664924715311e+00 3.707708148544049e+00 3.707708148544049e+00
7.181758527034067e+00 3.735299074581533e+00 3.735299074581533e+00
7.273852129352823e+00 3.762890000619017e+00 3.762890000619017e+00
7.273852129352823e+00 3.762890000619017e+00 3.762890000619017e+00
7.365873502512967e+00 3.790601200109032e+00 3.790601200109032e+00
7.457894875673109e+00 3.818312399599046e+00 3.818312399599046e+00
7.549916248833252e+00 3.846023599089061e+00 3.846023599089061e+00
7.641937621993395e+00 3.873734798579076e+00 3.873734798579076e+00
7.733958995153538e+00 3.901445998069090e+00 3.901445998069090e+00
7.733958995153538e+00 3.901445998069090e+00 3.901445998069090e+00
7.825926037925155e+00 3.929247261703035e+00 3.929247261703035e+00
7.917893080696771e+00 3.957048525336979e+00 3.957048525336979e+00
8.009860123468389e+00 3.984849788970923e+00 3.984849788970923e+00
8.101827166240007e+00 4.012651052604867e+00 4.012651052604867e+00
8.193794209011623e+00 4.040452316238811e+00 4.040452316238811e+00
8.193794209011623e+00 4.040452316238811e+00 4.040452316238811e+00
8.285724956318782e+00 4.068313555486806e+00 4.068313555486806e+00
8.377655703625940e+00 4.096174794734799e+00 4.096174794734800e+00
8.469586450933100e+00 4.124036033982794e+00 4.124036033982794e+00
8.561517198240260e+00 4.151897273230787e+00 4.151897273230788e+00
8.653447945547418e+00 4.179758512478781e+00 4.179758512478783e+00
8.653447945547418e+00 4.179758512478781e+00 4.179758512478783e+00
8.745360522616688e+00 4.207649719382978e+00 4.207649719382979e+00
8.837273099685955e+00 4.235540926287175e+00 4.235540926287175e+00
8.929185676755225e+00 4.263432133191372e+00 4.263432133191372e+00
9.021098253824492e+00 4.291323340095569e+00 4.291323340095568e+00
9.113010830893760e+00 4.319214546999765e+00 4.319214546999764e+00
        </DataArray>
      </Points>

      <Cells>
        <DataArray type="Int32" Name="connectivity" format="ascii">
0 1 2 3 4 5 6 7 8 9 10 11 12 13 14 15 16 17 18 19 20 21 22 23 24 25 26 27 28 29 30 31 32 33 34 35 36 37 38 39 40 41 42 43 44 45 46 47 48 49 50 51 52 53 54 55 56 57 58 59 60 61 62 63 64 65 66 67 68 69 70 71 72 73 74 75 76 77 
        </DataArray>
        <DataArray type="Int32" Name="offsets" format="ascii">
6 12 18 24 30 36 42 48 54 60 66 72 78 
        </DataArray>
        <DataArray type="UInt8" Name="types" format="ascii">
4 4 4 4 4 4 4 4 4 4 4 4 4 
        </DataArray>
      </Cells>

  <PointData>
        <DataArray type="Float64" Name="base_vector_1" NumberOfComponents="3" format="ascii">
9.338058703222999e-01 2.529887315194216e-01 2.529887315194217e-01
9.333847246936915e-01 2.537646111147904e-01 2.537646111147904e-01
9.329622897416230e-01 2.545401401744605e-01 2.545401401744605e-01
9.325385660496210e-01 2.553153176271612e-01 2.553153176271613e-01
9.321135542029934e-01 2.560901424021075e-01 2.560901424021075e-01
9.316872547888264e-01 2.568646134290012e-01 2.568646134290012e-01
9.316872547888264e-01 2.568646134290013e-01 2.568646134290013e-01
9.312950824142314e-01 2.575747168018146e-01 2.575747168018146e-01
9.309018276020939e-01 2.582845207973964e-01 2.582845207973964e-01
9.305074908094911e-01 2.589940245907468e-01 2.589940245907468e-01
9.301120724947580e-01 2.597032273572145e-01 2.597032273572145e-01
9.297155731174862e-01 2.604121282724983e-01 2.604121282724983e-01
9.297155731174862e-01 2.604121282724983e-01 2.604121282724983e-01
9.293535923489811e-01 2.610573695455120e-01 2.610573695455120e-01
9.289907159599305e-01 2.617023592368397e-01 2.617023592368397e-01
9.286269443000397e-01 2.623470967249030e-01 2.623470967249030e-01
9.282622777198760e-01 2.629915813883667e-01 2.629915813883667e-01
9.278967165708699e-01 2.636358126061392e-01 2.636358126061392e-01
9.278967165708699e-01 2.636358126061392e-01 2.636358126061392e-01
9.275660197620984e-01 2.642170310395400e-01 2.642170310395400e-01
9.272345948231713e-01 2.647980420651835e-01 2.647980420651835e-01
9.269024420142540e-01 2.653788452269817e-01 2.653788452269818e-01
9.265695615960829e-01 2.659594400690100e-01 2.659594400690101e-01
9.262359538299662e-01 2.665398261355071e-01 2.665398261355072e-01
9.262359538299662e-01 2.665398261355072e-01 2.665398261355073e-01
9.259375135597918e-01 2.670577849293204e-01 2.670577849293205e-01
9.256384939960540e-01 2.675755766439802e-01 2.675755766439803e-01
9.253388953258281e-01 2.680932009555409e-01 2.680932009555410e-01
9.250387177365518e-01 2.686106575401617e-01 2.686106575401618e-01
9.247379614160249e-01 2.691279460741066e-01 2.691279460741067e-01
9.247379614160248e-01 2.691279460741067e-01 2.691279460741068e-01
9.244726361011022e-01 2.695833313655345e-01 2.695833313655346e-01
9.242068622791583e-01 2.700385858688653e-01 2.700385858688653e-01
9.239406400791331e-01 2.704937093632326e-01 2.704937093632326e-01
9.236739696301841e-01 2.709487016278338e-01 2.709487016278338e-01
9.234068510616862e-01 2.714035624419298e-01 2.714035624419298e-01
9.234068510616862e-01 2.714035624419297e-01 2.714035624419297e-01
9.231753899657831e-01 2.717969824717748e-01 2.717969824717748e-01
9.229435936345429e-01 2.721903038031991e-01 2.721903038031991e-01
9.227114621521388e-01 2.725835262933749e-01 2.725835262933749e-01
9.224789956028654e-01 2.729766497995101e-01 2.729766497995101e-01
9.222461940711386e-01 2.733696741788486e-01 2.733696741788486e-01
9.222461940711387e-01 2.733696741788486e-01 2.733696741788486e-01
9.220492417189596e-01 2.737016586043018e-01 2.737016586043018e-01
9.218520503554384e-01 2.740335720814826e-01 2.740335720814827e-01
9.216546200316904e-01 2.743654145243532e-01 2.743654145243533e-01
9.214569507988931e-01 2.746971858468942e-01 2.746971858468943e-01
9.212590427082858e-01 2.750288859631046e-01 2.750288859631047e-01
9.212590427082858e-01 2.750288859631047e-01 2.750288859631048e-01
9.210971427112056e-01 2.752998852971547e-01 2.752998852971548e-01
9.209350832787615e-01 2.755708369787527e-01 2.755708369787528e-01
9.207728644390050e-01 2.758417409609991e-01 2.758417409609991e-01
9.206104862200148e-01 2.761125971970020e-01 2.761125971970021e-01
9.204479486498979e-01 2.763834056398783e-01 2.763834056398783e-01
9.204479486498979e-01 2.763834056398783e-01 2.763834056398783e-01
9.203215469504610e-01 2.765937908004357e-01 2.765937908004357e-01
9.201950490762987e-01 2.768041470566042e-01 2.768041470566043e-01
9.200684550406300e-01 2.770144743864013e-01 2.770144743864013e-01
9.199417648566841e-01 2.772247727678474e-01 2.772247727678475e-01
9.198149785377003e-01 2.774350421789664e-01 2.774350421789665e-01
9.198149785377003e-01 2.774350421789664e-01 2.774350421789665e-01
9.197244260790129e-01 2.775851041335164e-01 2.775851041335165e-01
9.196338246570223e-01 2.777351513102881e-01 2.777351513102883e-01
9.195431742765516e-01 2.778851837012936e-01 2.778851837012937e-01
9.194524749424271e-01 2.780352012985454e-01 2.780352012985455e-01
9.193617266594774e-01 2.781852040940572e-01 2.781852040940573e-01
9.193617266594774e-01 2.781852040940572e-01 2.781852040940573e-01
9.193072814847334e-01 2.782751535882688e-01 2.782751535882689e-01
9.192528187088401e-01 2.783650977545967e-01 2.783650977545968e-01
9.191983383328405e-01 2.784550365913183e-01 2.784550365913184e-01
9.191438403577775e-01 2.785449700967120e-01 2.785449700967120e-01
9.190893247846945e-01 2.786348982690558e-01 2.786348982690558e-01
9.190893247846945e-01 2.786348982690558e-01 2.786348982690558e-01
9.190711535710877e-01 2.786648656303034e-01 2.786648656303035e-01
9.190529804032795e-01 2.786948323990319e-01 2.786948323990319e-01
9.190348052813089e-01 2.787247985751775e-01 2.787247985751776e-01
9.190166282052143e-01 2.787547641586766e-01 2.787547641586766e-01
9.189984491750345e-01 2.787847291494654e-01 2.787847291494655e-01
        </DataArray>
        <DataArray type="Float64" Name="base_vector_2" NumberOfComponents="3" format="ascii">
-2.529887315194216e-01 9.669029351611499e-01 -3.309706483885008e-02
-2.537646111147904e-01 9.666923623468457e-01 -3.330763765315424e-02
-2.545401401744605e-01 9.664811448708115e-01 -3.351885512918855e-02
-2.553153176271612e-01 9.662692830248105e-01 -3.373071697518947e-02
-2.560901424021075e-01 9.660567771014967e-01 -3.394322289850334e-02
-2.568646134290012e-01 9.658436273944132e-01 -3.415637260558682e-02
-2.568646134290013e-01 9.658436273944132e-01 -3.415637260558683e-02
-2.575747168018146e-01 9.656475412071157e-01 -3.435245879288432e-02
-2.582845207973964e-01 9.654509138010470e-01 -3.454908619895307e-02
-2.589940245907468e-01 9.652537454047456e-01 -3.474625459525444e-02
-2.597032273572145e-01 9.650560362473790e-01 -3.494396375262103e-02
-2.604121282724983e-01 9.648577865587431e-01 -3.514221344125694e-02
-2.604121282724983e-01 9.648577865587431e-01 -3.514221344125693e-02
-2.610573695455120e-01 9.646767961744905e-01 -3.532320382550950e-02
-2.617023592368397e-01 9.644953579799652e-01 -3.550464202003477e-02
-2.623470967249030e-01 9.643134721500198e-01 -3.568652784998021e-02
-2.629915813883667e-01 9.641311388599381e-01 -3.586886114006201e-02
-2.636358126061392e-01 9.639483582854349e-01 -3.605164171456506e-02
-2.636358126061392e-01 9.639483582854349e-01 -3.605164171456506e-02
-2.642170310395400e-01 9.637830098810491e-01 -3.621699011895081e-02
-2.647980420651835e-01 9.636172974115856e-01 -3.638270258841437e-02
-2.653788452269817e-01 9.634512210071270e-01 -3.654877899287304e-02
-2.659594400690100e-01 9.632847807980415e-01 -3.671521920195853e-02
-2.665398261355071e-01 9.631179769149831e-01 -3.688202308501692e-02
-2.665398261355072e-01 9.631179769149831e-01 -3.688202308501692e-02
-2.670577849293204e-01 9.629687567798959e-01 -3.703124322010408e-02
-2.675755766439802e-01 9.628192469980270e-01 -3.718075300197299e-02
-2.680932009555409e-01 9.626694476629141e-01 -3.733055233708593e-02
-2.686106575401617e-01 9.625193588682759e-01 -3.748064113172411e-02
-2.691279460741066e-01 9.623689807080125e-01 -3.763101929198756e-02
-2.691279460741067e-01 9.623689807080125e-01 -3.763101929198757e-02
-2.695833313655345e-01 9.622363180505511e-01 -3.776368194944892e-02
-2.700385858688653e-01 9.621034311395791e-01 -3.789656886042087e-02
-2.704937093632326e-01 9.619703200395665e-01 -3.802967996043346e-02
-2.709487016278338e-01 9.618369848150921e-01 -3.816301518490795e-02
-2.714035624419298e-01 9.617034255308431e-01 -3.829657446915691e-02
-2.714035624419297e-01 9.617034255308431e-01 -3.829657446915690e-02
-2.717969824717748e-01 9.615876949828915e-01 -3.841230501710849e-02
-2.721903038031991e-01 9.614717968172715e-01 -3.852820318272853e-02
-2.725835262933749e-01 9.613557310760694e-01 -3.864426892393057e-02
-2.729766497995101e-01 9.612394978014327e-01 -3.876050219856734e-02
-2.733696741788486e-01 9.611230970355693e-01 -3.887690296443069e-02
-2.733696741788486e-01 9.611230970355693e-01 -3.887690296443067e-02
-2.737016586043018e-01 9.610246208594798e-01 -3.897537914052019e-02
-2.740335720814826e-01 9.609260251777192e-01 -3.907397482228082e-02
-2.743654145243532e-01 9.608273100158452e-01 -3.917268998415480e-02
-2.746971858468942e-01 9.607284753994466e-01 -3.927152460055346e-02
-2.750288859631046e-01 9.606295213541429e-01 -3.937047864585710e-02
-2.750288859631047e-01 9.606295213541429e-01 -3.937047864585711e-02
-2.752998852971547e-01 9.605485713556028e-01 -3.945142864439725e-02
-2.755708369787527e-01 9.604675416393808e-01 -3.953245836061927e-02
-2.758417409609991e-01 9.603864322195025e-01 -3.961356778049752e-02
-2.761125971970020e-01 9.603052431100074e-01 -3.969475688999256e-02
-2.763834056398783e-01 9.602239743249489e-01 -3.977602567505108e-02
-2.763834056398783e-01 9.602239743249489e-01 -3.977602567505108e-02
-2.765937908004357e-01 9.601607734752305e-01 -3.983922652476950e-02
-2.768041470566042e-01 9.600975245381493e-01 -3.990247546185068e-02
-2.770144743864013e-01 9.600342275203150e-01 -3.996577247968503e-02
-2.772247727678474e-01 9.599708824283421e-01 -4.002911757165794e-02
-2.774350421789664e-01 9.599074892688502e-01 -4.009251073114980e-02
-2.774350421789664e-01 9.599074892688502e-01 -4.009251073114980e-02
-2.775851041335164e-01 9.598622130395065e-01 -4.013778696049354e-02
-2.777351513102881e-01 9.598169123285111e-01 -4.018308767148888e-02
-2.778851837012936e-01 9.597715871382758e-01 -4.022841286172418e-02
-2.780352012985454e-01 9.597262374712136e-01 -4.027376252878642e-02
-2.781852040940572e-01 9.596808633297387e-01 -4.031913667026134e-02
-2.781852040940572e-01 9.596808633297387e-01 -4.031913667026134e-02
-2.782751535882688e-01 9.596536407423667e-01 -4.034635925763332e-02
-2.783650977545967e-01 9.596264093544201e-01 -4.037359064557993e-02
-2.784550365913183e-01 9.595991691664203e-01 -4.040083083357974e-02
-2.785449700967120e-01 9.595719201788888e-01 -4.042807982111123e-02
-2.786348982690558e-01 9.595446623923473e-01 -4.045533760765271e-02
-2.786348982690558e-01 9.595446623923473e-01 -4.045533760765271e-02
-2.786648656303034e-01 9.595355767855438e-01 -4.046442321445616e-02
-2.786948323990319e-01 9.595264902016398e-01 -4.047350979836021e-02
-2.787247985751775e-01 9.595174026406544e-01 -4.048259735934553e-02
-2.787547641586766e-01 9.595083141026072e-01 -4.049168589739283e-02
-2.787847291494654e-01 9.594992245875172e-01 -4.050077541248277e-02
        </DataArray>
        <DataArray type="Float64" Name="base_vector_3" NumberOfComponents="3" format="ascii">
-2.529887315194217e-01 -3.309706483885005e-02 9.669029351611499e-01
-2.537646111147904e-01 -3.330763765315421e-02 9.666923623468457e-01
-2.545401401744605e-01 -3.351885512918852e-02 9.664811448708115e-01
-2.553153176271613e-01 -3.373071697518944e-02 9.662692830248105e-01
-2.560901424021075e-01 -3.394322289850331e-02 9.660567771014967e-01
-2.568646134290012e-01 -3.415637260558678e-02 9.658436273944132e-01
-2.568646134290013e-01 -3.415637260558679e-02 9.658436273944132e-01
-2.575747168018146e-01 -3.435245879288428e-02 9.656475412071157e-01
-2.582845207973964e-01 -3.454908619895303e-02 9.654509138010470e-01
-2.589940245907468e-01 -3.474625459525440e-02 9.652537454047456e-01
-2.597032273572145e-01 -3.494396375262099e-02 9.650560362473790e-01
-2.604121282724983e-01 -3.514221344125690e-02 9.648577865587431e-01
-2.604121282724983e-01 -3.514221344125688e-02 9.648577865587431e-01
-2.610573695455120e-01 -3.532320382550946e-02 9.646767961744905e-01
-2.617023592368397e-01 -3.550464202003473e-02 9.644953579799652e-01
-2.623470967249030e-01 -3.568652784998017e-02 9.643134721500198e-01
-2.629915813883667e-01 -3.586886114006197e-02 9.641311388599381e-01
-2.636358126061392e-01 -3.605164171456502e-02 9.639483582854349e-01
-2.636358126061392e-01 -3.605164171456502e-02 9.639483582854349e-01
-2.642170310395400e-01 -3.621699011895078e-02 9.637830098810491e-01
-2.647980420651835e-01 -3.638270258841434e-02 9.636172974115856e-01
-2.653788452269818e-01 -3.654877899287303e-02 9.634512210071270e-01
-2.659594400690101e-01 -3.671521920195853e-02 9.632847807980415e-01
-2.665398261355072e-01 -3.688202308501692e-02 9.631179769149830e-01
-2.665398261355073e-01 -3.688202308501692e-02 9.631179769149830e-01
-2.670577849293205e-01 -3.703124322010408e-02 9.629687567798959e-01
-2.675755766439803e-01 -3.718075300197299e-02 9.628192469980270e-01
-2.680932009555410e-01 -3.733055233708593e-02 9.626694476629141e-01
-2.686106575401618e-01 -3.748064113172411e-02 9.625193588682759e-01
-2.691279460741067e-01 -3.763101929198756e-02 9.623689807080125e-01
-2.691279460741068e-01 -3.763101929198759e-02 9.623689807080124e-01
-2.695833313655346e-01 -3.776368194944892e-02 9.622363180505511e-01
-2.700385858688653e-01 -3.789656886042087e-02 9.621034311395791e-01
-2.704937093632326e-01 -3.802967996043344e-02 9.619703200395665e-01
-2.709487016278338e-01 -3.816301518490794e-02 9.618369848150921e-01
-2.714035624419298e-01 -3.829657446915689e-02 9.617034255308431e-01
-2.714035624419297e-01 -3.829657446915687e-02 9.617034255308431e-01
-2.717969824717748e-01 -3.841230501710846e-02 9.615876949828915e-01
-2.721903038031991e-01 -3.852820318272850e-02 9.614717968172715e-01
-2.725835262933749e-01 -3.864426892393054e-02 9.613557310760694e-01
-2.729766497995101e-01 -3.876050219856731e-02 9.612394978014327e-01
-2.733696741788486e-01 -3.887690296443066e-02 9.611230970355693e-01
-2.733696741788486e-01 -3.887690296443064e-02 9.611230970355693e-01
-2.737016586043018e-01 -3.897537914052016e-02 9.610246208594798e-01
-2.740335720814827e-01 -3.907397482228080e-02 9.609260251777192e-01
-2.743654145243533e-01 -3.917268998415478e-02 9.608273100158452e-01
-2.746971858468943e-01 -3.927152460055343e-02 9.607284753994465e-01
-2.750288859631047e-01 -3.937047864585708e-02 9.606295213541429e-01
-2.750288859631048e-01 -3.937047864585710e-02 9.606295213541429e-01
-2.752998852971548e-01 -3.945142864439723e-02 9.605485713556028e-01
-2.755708369787528e-01 -3.953245836061927e-02 9.604675416393808e-01
-2.758417409609991e-01 -3.961356778049752e-02 9.603864322195025e-01
-2.761125971970021e-01 -3.969475688999256e-02 9.603052431100074e-01
-2.763834056398783e-01 -3.977602567505109e-02 9.602239743249489e-01
-2.763834056398783e-01 -3.977602567505108e-02 9.602239743249489e-01
-2.765937908004357e-01 -3.983922652476950e-02 9.601607734752305e-01
-2.768041470566043e-01 -3.990247546185068e-02 9.600975245381493e-01
-2.770144743864013e-01 -3.996577247968505e-02 9.600342275203150e-01
-2.772247727678475e-01 -4.002911757165795e-02 9.599708824283421e-01
-2.774350421789665e-01 -4.009251073114981e-02 9.599074892688502e-01
-2.774350421789665e-01 -4.009251073114981e-02 9.599074892688502e-01
-2.775851041335165e-01 -4.013778696049355e-02 9.598622130395065e-01
-2.777351513102883e-01 -4.018308767148890e-02 9.598169123285111e-01
-2.778851837012937e-01 -4.022841286172419e-02 9.597715871382758e-01
-2.780352012985455e-01 -4.027376252878643e-02 9.597262374712136e-01
-2.781852040940573e-01 -4.031913667026136e-02 9.596808633297387e-01
-2.781852040940573e-01 -4.031913667026136e-02 9.596808633297387e-01
-2.782751535882689e-01 -4.034635925763334e-02 9.596536407423667e-01
-2.783650977545968e-01 -4.037359064557994e-02 9.596264093544200e-01
-2.784550365913184e-01 -4.040083083357975e-02 9.595991691664203e-01
-2.785449700967120e-01 -4.042807982111125e-02 9.595719201788887e-01
-2.786348982690558e-01 -4.045533760765272e-02 9.595446623923473e-01
-2.786348982690558e-01 -4.045533760765271e-02 9.595446623923473e-01
-2.786648656303035e-01 -4.046442321445616e-02 9.595355767855438e-01
-2.786948323990319e-01 -4.047350979836022e-02 9.595264902016398e-01
-2.787247985751776e-01 -4.048259735934555e-02 9.595174026406544e-01
-2.787547641586766e-01 -4.049168589739284e-02 9.595083141026072e-01
-2.787847291494655e-01 -4.050077541248279e-02 9.594992245875172e-01
        </DataArray>
        <DataArray type="Float64" Name="displacement" NumberOfComponents="3" format="ascii">
-3.936845874192945e-01 2.061430428613254e+00 2.061430428613254e+00
-4.004011963391561e-01 2.086943988225561e+00 2.086943988225561e+00
-4.071178052590172e-01 2.112457547837868e+00 2.112457547837868e+00
-4.138344141788779e-01 2.137971107450174e+00 2.137971107450174e+00
-4.205510230987390e-01 2.163484667062481e+00 2.163484667062481e+00
-4.272676320186002e-01 2.188998226674788e+00 2.188998226674788e+00
-4.272676320186002e-01 2.188998226674788e+00 2.188998226674788e+00
-4.341888465356520e-01 2.214882854141518e+00 2.214882854141519e+00
-4.411100610527035e-01 2.240767481608249e+00 2.240767481608249e+00
-4.480312755697540e-01 2.266652109074980e+00 2.266652109074980e+00
-4.549524900868058e-01 2.292536736541710e+00 2.292536736541710e+00
-4.618737046038568e-01 2.318421364008441e+00 2.318421364008441e+00
-4.618737046038568e-01 2.318421364008441e+00 2.318421364008441e+00
-4.689845270613011e-01 2.344644457723301e+00 2.344644457723301e+00
-4.760953495187454e-01 2.370867551438161e+00 2.370867551438161e+00
-4.832061719761915e-01 2.397090645153020e+00 2.397090645153021e+00
-4.903169944336359e-01 2.423313738867880e+00 2.423313738867881e+00
-4.974278168910811e-01 2.449536832582740e+00 2.449536832582741e+00
-4.974278168910811e-01 2.449536832582740e+00 2.449536832582741e+00
-5.047126922026104e-01 2.476066225827859e+00 2.476066225827859e+00
-5.119975675141415e-01 2.502595619072977e+00 2.502595619072978e+00
-5.192824428256708e-01 2.529125012318096e+00 2.529125012318096e+00
-5.265673181372019e-01 2.555654405563215e+00 2.555654405563215e+00
-5.338521934487321e-01 2.582183798808333e+00 2.582183798808333e+00
-5.338521934487321e-01 2.582183798808333e+00 2.582183798808333e+00
-5.412950697806105e-01 2.608987721772712e+00 2.608987721772712e+00
-5.487379461124879e-01 2.635791644737090e+00 2.635791644737091e+00
-5.561808224443654e-01 2.662595567701469e+00 2.662595567701469e+00
-5.636236987762437e-01 2.689399490665847e+00 2.689399490665848e+00
-5.710665751081212e-01 2.716203413630226e+00 2.716203413630226e+00
-5.710665751081212e-01 2.716203413630226e+00 2.716203413630226e+00
-5.786509616724533e-01 2.743250454913294e+00 2.743250454913295e+00
-5.862353482367837e-01 2.770297496196362e+00 2.770297496196363e+00
-5.938197348011176e-01 2.797344537479431e+00 2.797344537479431e+00
-6.014041213654480e-01 2.824391578762500e+00 2.824391578762500e+00
-6.089885079297801e-01 2.851438620045568e+00 2.851438620045568e+00
-6.089885079297801e-01 2.851438620045568e+00 2.851438620045568e+00
-6.166975301920496e-01 2.878697687733321e+00 2.878697687733321e+00
-6.244065524543192e-01 2.905956755421073e+00 2.905956755421073e+00
-6.321155747165887e-01 2.933215823108826e+00 2.933215823108826e+00
-6.398245969788583e-01 2.960474890796578e+00 2.960474890796579e+00
-6.475336192411270e-01 2.987733958484331e+00 2.987733958484331e+00
-6.475336192411270e-01 2.987733958484331e+00 2.987733958484331e+00
-6.553500718410934e-01 3.015174240873784e+00 3.015174240873784e+00
-6.631665244410589e-01 3.042614523263237e+00 3.042614523263238e+00
-6.709829770410263e-01 3.070054805652691e+00 3.070054805652691e+00
-6.787994296409909e-01 3.097495088042144e+00 3.097495088042144e+00
-6.866158822409574e-01 3.124935370431597e+00 3.124935370431597e+00
-6.866158822409574e-01 3.124935370431597e+00 3.124935370431597e+00
-6.945222799222011e-01 3.152526296469081e+00 3.152526296469081e+00
-7.024286776034456e-01 3.180117222506565e+00 3.180117222506565e+00
-7.103350752846893e-01 3.207708148544049e+00 3.207708148544049e+00
-7.182414729659330e-01 3.235299074581533e+00 3.235299074581533e+00
-7.261478706471767e-01 3.262890000619017e+00 3.262890000619017e+00
-7.261478706471767e-01 3.262890000619017e+00 3.262890000619017e+00
-7.341264974870345e-01 3.290601200109032e+00 3.290601200109032e+00
-7.421051243268906e-01 3.318312399599046e+00 3.318312399599046e+00
-7.500837511667484e-01 3.346023599089061e+00 3.346023599089061e+00
-7.580623780066054e-01 3.373734798579076e+00 3.373734798579076e+00
-7.660410048464623e-01 3.401445998069090e+00 3.401445998069090e+00
-7.660410048464623e-01 3.401445998069090e+00 3.401445998069090e+00
-7.740739620748460e-01 3.429247261703035e+00 3.429247261703035e+00
-7.821069193032280e-01 3.457048525336979e+00 3.457048525336979e+00
-7.901398765316117e-01 3.484849788970923e+00 3.484849788970923e+00
-7.981728337599936e-01 3.512651052604867e+00 3.512651052604867e+00
-8.062057909883773e-01 3.540452316238811e+00 3.540452316238811e+00
-8.062057909883773e-01 3.540452316238811e+00 3.540452316238811e+00
-8.142750436812172e-01 3.568313555486806e+00 3.568313555486806e+00
-8.223442963740588e-01 3.596174794734799e+00 3.596174794734800e+00
-8.304135490669005e-01 3.624036033982794e+00 3.624036033982794e+00
-8.384828017597403e-01 3.651897273230787e+00 3.651897273230788e+00
-8.465520544525820e-01 3.679758512478781e+00 3.679758512478783e+00
-8.465520544525820e-01 3.679758512478781e+00 3.679758512478783e+00
-8.546394773833139e-01 3.707649719382978e+00 3.707649719382979e+00
-8.627269003140441e-01 3.735540926287175e+00 3.735540926287175e+00
-8.708143232447760e-01 3.763432133191372e+00 3.763432133191372e+00
-8.789017461755062e-01 3.791323340095569e+00 3.791323340095568e+00
-8.869891691062399e-01 3.819214546999765e+00 3.819214546999764e+00
        </DataArray>
  </PointData>
  <CellData>
        <DataArray type="Float64" Name="axial_strain_GPs" format="ascii">
1.836783178297274e-04
1.843629744047171e-04
1.849836845579933e-04
1.855422659016170e-04
1.860403620255191e-04
1.864794448822593e-04
1.868608169737218e-04
1.871856133526251e-04
1.874548034705992e-04
1.876691927040763e-04
1.878294237309674e-04
1.879359775944778e-04
1.879891745388829e-04
        </DataArray>
        <DataArray type="Float64" Name="cross_section_radius" format="ascii">
5.000000000000000e-01
5.000000000000000e-01
5.000000000000000e-01
5.000000000000000e-01
5.000000000000000e-01
5.000000000000000e-01
5.000000000000000e-01
5.000000000000000e-01
5.000000000000000e-01
5.000000000000000e-01
5.000000000000000e-01
5.000000000000000e-01
5.000000000000000e-01
        </DataArray>
        <DataArray type="Float64" Name="curvature_2_GPs" format="ascii">
-8.310662105162264e-03
-7.623296151056773e-03
-6.941551537523025e-03
-6.264942798351094e-03
-5.592983334752005e-03
-4.925185629245836e-03
-4.261061426874786e-03
-3.600121887626672e-03
-2.941877713829107e-03
-2.285839256116633e-03
-1.631516601467072e-03
-9.784196467086826e-04
-3.260581608094642e-04
        </DataArray>
        <DataArray type="Float64" Name="curvature_3_GPs" format="ascii">
8.310662105162380e-03
7.623296151056772e-03
6.941551537523023e-03
6.264942798350862e-03
5.592983334752005e-03
4.925185629246067e-03
4.261061426874786e-03
3.600121887626449e-03
2.941877713829321e-03
2.285839256116518e-03
1.631516601466852e-03
9.784196467090185e-04
3.260581608092365e-04
        </DataArray>
        <DataArray type="Float64" Name="element_ghosting" NumberOfComponents="3" format="ascii">
0.000000000000000e+00 1.000000000000000e+00 0.000000000000000e+00
0.000000000000000e+00 0.000000000000000e+00 0.000000000000000e+00
0.000000000000000e+00 0.000000000000000e+00 0.000000000000000e+00
0.000000000000000e+00 0.000000000000000e+00 0.000000000000000e+00
0.000000000000000e+00 0.000000000000000e+00 0.000000000000000e+00
0.000000000000000e+00 0.000000000000000e+00 0.000000000000000e+00
0.000000000000000e+00 0.000000000000000e+00 0.000000000000000e+00
0.000000000000000e+00 0.000000000000000e+00 0.000000000000000e+00
0.000000000000000e+00 0.000000000000000e+00 0.000000000000000e+00