<?xml version="1.0" ?> 
<!-- 
# vtk DataFile Version 3.0
-->
<VTKFile type="UnstructuredGrid" version="0.1" compressor="vtkZLibDataCompressor" byte_order="LittleEndian">
  <UnstructuredGrid>
    <FieldData>
      <DataArray type="Float64" Name="TIME" NumberOfTuples="1" format="ascii">
1e-08
      </DataArray>
    </FieldData>

    <Piece NumberOfPoints="204" NumberOfCells="0" >
      <Points>
        <DataArray type="Float64" NumberOfComponents="3" format="ascii">
-5.000000000000000e+00 -5.000000000000000e-01 5.000000000000000e-01
-5.000000000000000e+00 -5.000000000000000e-01 -5.000000000000000e-01
-5.000000000000000e+00 5.000000000000000e-01 -5.000000000000000e-01
-5.000000000000000e+00 5.000000000000000e-01 5.000000000000000e-01
-4.000000000000000e+00 -5.000000000000000e-01 5.000000000000000e-01
-4.000000000000000e+00 -5.000000000000000e-01 -5.000000000000000e-01
-4.000000000000000e+00 5.000000000000000e-01 -5.000000000000000e-01
-4.000000000000000e+00 5.000000000000000e-01 5.000000000000000e-01
-5.000000000000000e+00 -5.000000000000000e-01 0.000000000000000e+00
-5.000000000000000e+00 0.000000000000000e+00 -5.000000000000000e-01
-5.000000000000000e+00 5.000000000000000e-01 0.000000000000000e+00
-5.000000000000000e+00 0.000000000000000e+00 5.000000000000000e-01
-4.500000000000000e+00 -5.000000000000000e-01 5.000000000000000e-01
-4.500000000000000e+00 -5.000000000000000e-01 -5.000000000000000e-01
-4.500000000000000e+00 5.000000000000000e-01 -5.000000000000000e-01
-4.500000000000000e+00 5.000000000000000e-01 5.000000000000000e-01
-4.000000000000000e+00 -5.000000000000000e-01 0.000000000000000e+00
-4.000000000000000e+00 0.000000000000000e+00 -5.000000000000000e-01
-4.000000000000000e+00 5.000000000000000e-01 0.000000000000000e+00
-4.000000000000000e+00 0.000000000000000e+00 5.000000000000000e-01
-4.500000000000000e+00 0.000000000000000e+00 0.000000000000000e+00
-5.000000000000000e+00 0.000000000000000e+00 0.000000000000000e+00
-4.000000000000000e+00 0.000000000000000e+00 0.000000000000000e+00
-4.500000000000000e+00 0.000000000000000e+00 5.000000000000000e-01
-4.500000000000000e+00 0.000000000000000e+00 -5.000000000000000e-01
-4.500000000000000e+00 -5.000000000000000e-01 0.000000000000000e+00
-4.500000000000000e+00 5.000000000000000e-01 0.000000000000000e+00
-3.000000000000000e+00 -5.000000000000000e-01 5.000000000000000e-01
-3.000000000000000e+00 -5.000000000000000e-01 -5.000000000000000e-01
-3.000000000000000e+00 5.000000000000000e-01 -5.000000000000000e-01
-3.000000000000000e+00 5.000000000000000e-01 5.000000000000000e-01
-3.500000000000000e+00 -5.000000000000000e-01 5.000000000000000e-01
-3.500000000000000e+00 -5.000000000000000e-01 -5.000000000000000e-01
-3.500000000000000e+00 5.000000000000000e-01 -5.000000000000000e-01
-3.500000000000000e+00 5.000000000000000e-01 5.000000000000000e-01
-3.000000000000000e+00 -5.000000000000000e-01 0.000000000000000e+00
-3.000000000000000e+00 0.000000000000000e+00 -5.000000000000000e-01
-3.000000000000000e+00 5.000000000000000e-01 0.000000000000000e+00
-3.000000000000000e+00 0.000000000000000e+00 5.000000000000000e-01
-3.500000000000000e+00 0.000000000000000e+00 0.000000000000000e+00
-3.000000000000000e+00 0.000000000000000e+00 0.000000000000000e+00
-3.500000000000000e+00 0.000000000000000e+00 5.000000000000000e-01
-3.500000000000000e+00 0.000000000000000e+00 -5.000000000000000e-01
-3.500000000000000e+00 -5.000000000000000e-01 0.000000000000000e+00
-3.500000000000000e+00 5.000000000000000e-01 0.000000000000000e+00
-2.000000000000000e+00 -5.000000000000000e-01 5.000000000000000e-01
-2.000000000000000e+00 -5.000000000000000e-01 -5.000000000000000e-01
-2.000000000000000e+00 5.000000000000000e-01 -5.000000000000000e-01
-2.000000000000000e+00 5.000000000000000e-01 5.000000000000000e-01
-2.500000000000000e+00 -5.000000000000000e-01 5.000000000000000e-01
-2.500000000000000e+00 -5.000000000000000e-01 -5.000000000000000e-01
-2.500000000000000e+00 5.000000000000000e-01 -5.000000000000000e-01
-2.500000000000000e+00 5.000000000000000e-01 5.000000000000000e-01
-2.000000000000000e+00 -5.000000000000000e-01 0.000000000000000e+00
-2.000000000000000e+00 0.000000000000000e+00 -5.000000000000000e-01
-2.000000000000000e+00 5.000000000000000e-01 0.000000000000000e+00
-2.000000000000000e+00 0.000000000000000e+00 5.000000000000000e-01
-2.500000000000000e+00 0.000000000000000e+00 0.000000000000000e+00
-2.000000000000000e+00 0.000000000000000e+00 0.000000000000000e+00
-2.500000000000000e+00 0.000000000000000e+00 5.000000000000000e-01
-2.500000000000000e+00 0.000000000000000e+00 -5.000000000000000e-01
-2.500000000000000e+00 -5.000000000000000e-01 0.000000000000000e+00
-2.500000000000000e+00 5.000000000000000e-01 0.000000000000000e+00
-1.000000000000000e+00 -5.000000000000000e-01 5.000000000000000e-01
-1.000000000000000e+00 -5.000000000000000e-01 -5.000000000000000e-01
-1.000000000000000e+00 5.000000000000000e-01 -5.000000000000000e-01
-1.000000000000000e+00 5.000000000000000e-01 5.000000000000000e-01
-1.500000000000000e+00 -5.000000000000000e-01 5.000000000000000e-01
-1.500000000000000e+00 -5.000000000000000e-01 -5.000000000000000e-01
-1.500000000000000e+00 5.000000000000000e-01 -5.000000000000000e-01
-1.500000000000000e+00 5.000000000000000e-01 5.000000000000000e-01
-1.000000000000000e+00 -5.000000000000000e-01 0.000000000000000e+00
-1.000000000000000e+00 0.000000000000000e+00 -5.000000000000000e-01
-1.000000000000000e+00 5.000000000000000e-01 0.000000000000000e+00
-1.000000000000000e+00 0.000000000000000e+00 5.000000000000000e-01
-1.500000000000000e+00 0.000000000000000e+00 0.000000000000000e+00
-1.000000000000000e+00 0.000000000000000e+00 0.000000000000000e+00
-1.500000000000000e+00 0.000000000000000e+00 5.000000000000000e-01
-1.500000000000000e+00 0.000000000000000e+00 -5.000000000000000e-01
-1.500000000000000e+00 -5.000000000000000e-01 0.000000000000000e+00
-1.500000000000000e+00 5.000000000000000e-01 0.000000000000000e+00
0.000000000000000e+00 -5.000000000000000e-01 5.000000000000000e-01
0.000000000000000e+00 -5.000000000000000e-01 -5.000000000000000e-01
0.000000000000000e+00 5.000000000000000e-01 -5.000000000000000e-01
0.000000000000000e+00 5.000000000000000e-01 5.000000000000000e-01
-5.000000000000000e-01 -5.000000000000000e-01 5.000000000000000e-01
-5.000000000000000e-01 -5.000000000000000e-01 -5.000000000000000e-01
-5.000000000000000e-01 5.000000000000000e-01 -5.000000000000000e-01
-5.000000000000000e-01 5.000000000000000e-01 5.000000000000000e-01
0.000000000000000e+00 -5.000000000000000e-01 0.000000000000000e+00
0.000000000000000e+00 0.000000000000000e+00 -5.000000000000000e-01
0.000000000000000e+00 5.000000000000000e-01 0.000000000000000e+00
0.000000000000000e+00 0.000000000000000e+00 5.000000000000000e-01
-5.000000000000000e-01 0.000000000000000e+00 0.000000000000000e+00
0.000000000000000e+00 0.000000000000000e+00 0.000000000000000e+00
-5.000000000000000e-01 0.000000000000000e+00 5.000000000000000e-01
-5.000000000000000e-01 0.000000000000000e+00 -5.000000000000000e-01
-5.000000000000000e-01 -5.000000000000000e-01 0.000000000000000e+00
-5.000000000000000e-01 5.000000000000000e-01 0.000000000000000e+00
1.000000000000000e+00 -5.000000000000000e-01 5.000000000000000e-01
1.000000000000000e+00 -5.000000000000000e-01 -5.000000000000000e-01
1.000000000000000e+00 5.000000000000000e-01 -5.000000000000000e-01
1.000000000000000e+00 5.000000000000000e-01 5.000000000000000e-01
5.000000000000000e-01 -5.000000000000000e-01 5.000000000000000e-01
5.000000000000000e-01 -5.000000000000000e-01 -5.000000000000000e-01
5.000000000000000e-01 5.000000000000000e-01 -5.000000000000000e-01
5.000000000000000e-01 5.000000000000000e-01 5.000000000000000e-01
1.000000000000000e+00 -5.000000000000000e-01 0.000000000000000e+00
1.000000000000000e+00 0.000000000000000e+00 -5.000000000000000e-01
1.000000000000000e+00 5.000000000000000e-01 0.000000000000000e+00
1.000000000000000e+00 0.000000000000000e+00 5.000000000000000e-01
5.000000000000000e-01 0.000000000000000e+00 0.000000000000000e+00
1.000000000000000e+00 0.000000000000000e+00 0.000000000000000e+00
5.000000000000000e-01 0.000000000000000e+00 5.000000000000000e-01
5.000000000000000e-01 0.000000000000000e+00 -5.000000000000000e-01
5.000000000000000e-01 -5.000000000000000e-01 0.000000000000000e+00
5.000000000000000e-01 5.000000000000000e-01 0.000000000000000e+00
2.000000000000000e+00 -5.000000000000000e-01 5.000000000000000e-01
2.000000000000000e+00 -5.000000000000000e-01 -5.000000000000000e-01
2.000000000000000e+00 5.000000000000000e-01 -5.000000000000000e-01
2.000000000000000e+00 5.000000000000000e-01 5.000000000000000e-01
1.500000000000000e+00 -5.000000000000000e-01 5.000000000000000e-01
1.500000000000000e+00 -5.000000000000000e-01 -5.000000000000000e-01
1.500000000000000e+00 5.000000000000000e-01 -5.000000000000000e-01
1.500000000000000e+00 5.000000000000000e-01 5.000000000000000e-01
2.000000000000000e+00 -5.000000000000000e-01 0.000000000000000e+00
2.000000000000000e+00 0.000000000000000e+00 -5.000000000000000e-01
2.000000000000000e+00 5.000000000000000e-01 0.000000000000000e+00
2.000000000000000e+00 0.000000000000000e+00 5.000000000000000e-01
1.500000000000000e+00 0.000000000000000e+00 0.000000000000000e+00
2.000000000000000e+00 0.000000000000000e+00 0.000000000000000e+00
1.500000000000000e+00 0.000000000000000e+00 5.000000000000000e-01
1.500000000000000e+00 0.000000000000000e+00 -5.000000000000000e-01
1.500000000000000e+00 -5.000000000000000e-01 0.000000000000000e+00
1.500000000000000e+00 5.000000000000000e-01 0.000000000000000e+00
3.000000000000000e+00 -5.000000000000000e-01 5.000000000000000e-01
3.000000000000000e+00 -5.000000000000000e-01 -5.000000000000000e-01
3.000000000000000e+00 5.000000000000000e-01 -5.000000000000000e-01
3.000000000000000e+00 5.000000000000000e-01 5.000000000000000e-01
2.500000000000000e+00 -5.000000000000000e-01 5.000000000000000e-01
2.500000000000000e+00 -5.000000000000000e-01 -5.000000000000000e-01
2.500000000000000e+00 5.000000000000000e-01 -5.000000000000000e-01
2.500000000000000e+00 5.000000000000000e-01 5.000000000000000e-01
3.000000000000000e+00 -5.000000000000000e-01 0.000000000000000e+00
3.000000000000000e+00 0.000000000000000e+00 -5.000000000000000e-01
3.000000000000000e+00 5.000000000000000e-01 0.000000000000000e+00
3.000000000000000e+00 0.000000000000000e+00 5.000000000000000e-01
2.500000000000000e+00 0.000000000000000e+00 0.000000000000000e+00
3.000000000000000e+00 0.000000000000000e+00 0.000000000000000e+00
2.500000000000000e+00 0.000000000000000e+00 5.000000000000000e-01
2.500000000000000e+00 0.000000000000000e+00 -5.000000000000000e-01
2.500000000000000e+00 -5.000000000000000e-01 0.000000000000000e+00
2.500000000000000e+00 5.000000000000000e-01 0.000000000000000e+00
4.000000000000000e+00 -5.000000000000000e-01 5.000000000000000e-01
4.000000000000000e+00 -5.000000000000000e-01 -5.000000000000000e-01
4.000000000000000e+00 5.000000000000000e-01 -5.000000000000000e-01
4.000000000000000e+00 5.000000000000000e-01 5.000000000000000e-01
3.500000000000000e+00 -5.000000000000000e-01 5.000000000000000e-01
3.500000000000000e+00 -5.000000000000000e-01 -5.000000000000000e-01
3.500000000000000e+00 5.000000000000000e-01 -5.000000000000000e-01
3.500000000000000e+00 5.000000000000000e-01 5.000000000000000e-01
4.000000000000000e+00 -5.000000000000000e-01 0.000000000000000e+00
4.000000000000000e+00 0.000000000000000e+00 -5.000000000000000e-01
4.000000000000000e+00 5.000000000000000e-01 0.000000000000000e+00
4.000000000000000e+00 0.000000000000000e+00 5.000000000000000e-01
3.500000000000000e+00 0.000000000000000e+00 0.000000000000000e+00
4.000000000000000e+00 0.000000000000000e+00 0.000000000000000e+00
3.500000000000000e+00 0.000000000000000e+00 5.000000000000000e-01
3.500000000000000e+00 0.000000000000000e+00 -5.000000000000000e-01
3.500000000000000e+00 -5.000000000000000e-01 0.000000000000000e+00
3.500000000000000e+00 5.000000000000000e-01 0.000000000000000e+00
5.000000000000000e+00 -5.000000000000000e-01 5.000000000000000e-01
5.000000000000000e+00 -5.000000000000000e-01 -5.000000000000000e-01
5.000000000000000e+00 5.000000000000000e-01 -5.000000000000000e-01
5.000000000000000e+00 5.000000000000000e-01 5.000000000000000e-01
4.500000000000000e+00 -5.000000000000000e-01 5.000000000000000e-01
4.500000000000000e+00 -5.000000000000000e-01 -5.000000000000000e-01
4.500000000000000e+00 5.000000000000000e-01 -5.000000000000000e-01
4.500000000000000e+00 5.000000000000000e-01 5.000000000000000e-01
5.000000000000000e+00 -5.000000000000000e-01 0.000000000000000e+00
5.000000000000000e+00 0.000000000000000e+00 -5.000000000000000e-01
5.000000000000000e+00 5.000000000000000e-01 0.000000000000000e+00
5.000000000000000e+00 0.000000000000000e+00 5.000000000000000e-01
4.500000000000000e+00 0.000000000000000e+00 0.000000000000000e+00
5.000000000000000e+00 0.000000000000000e+00 0.000000000000000e+00
4.500000000000000e+00 0.000000000000000e+00 5.000000000000000e-01
4.500000000000000e+00 0.000000000000000e+00 -5.000000000000000e-01
4.500000000000000e+00 -5.000000000000000e-01 0.000000000000000e+00
4.500000000000000e+00 5.000000000000000e-01 0.000000000000000e+00
-4.500000000000000e+00 3.000000000000000e-01 0.000000000000000e+00
-3.928571428570000e+00 3.000000000000000e-01 0.000000000000000e+00
-3.357142857140000e+00 3.000000000000000e-01 0.000000000000000e+00
-2.785714285710000e+00 3.000000000000000e-01 0.000000000000000e+00
-2.214285714290000e+00 3.000000000000000e-01 0.000000000000000e+00
-1.642857142860000e+00 3.000000000000000e-01 0.000000000000000e+00
-1.071428571430000e+00 3.000000000000000e-01 0.000000000000000e+00
-5.000000000000000e-01 3.000000000000000e-01 0.000000000000000e+00
7.142857142860000e-02 3.000000000000000e-01 0.000000000000000e+00
6.428571428570000e-01 3.000000000000000e-01 0.000000000000000e+00
1.214285714290000e+00 3.000000000000000e-01 0.000000000000000e+00
1.785714285710000e+00 3.000000000000000e-01 0.000000000000000e+00
2.357142857140000e+00 3.000000000000000e-01 0.000000000000000e+00
2.928571428570000e+00 3.000000000000000e-01 0.000000000000000e+00
3.500000000000000e+00 3.000000000000000e-01 0.000000000000000e+00
        </DataArray>
      </Points>

      <Cells>
        <DataArray type="Int32" Name="connectivity" format="ascii">
0 1 2 3 4 5 6 7 8 9 10 11 12 13 14 15 16 17 18 19 20 21 22 23 24 25 26 27 28 29 30 31 32 33 34 35 36 37 38 39 40 41 42 43 44 45 46 47 48 49 50 51 52 53 54 55 56 57 58 59 60 61 62 63 64 65 66 67 68 69 70 71 72 73 74 75 76 77 78 79 80 81 82 83 84 85 86 87 88 89 90 91 92 93 94 95 96 97 98 99 100 101 102 103 104 105 106 107 108 109 110 111 112 113 114 115 116 117 118 119 120 121 122 123 124 125 126 127 128 129 130 131 132 133 134 135 136 137 138 139 140 141 142 143 144 145 146 147 148 149 150 151 152 153 154 155 156 157 158 159 160 161 162 163 164 165 166 167 168 169 170 171 172 173 174 175 176 177 178 179 180 181 182 183 184 185 186 187 188 189 190 191 192 193 194 195 196 197 198 199 200 201 202 203 
        </DataArray>
        <DataArray type="Int32" Name="offsets" format="ascii">

        </DataArray>
        <DataArray type="UInt8" Name="types" format="ascii">

        </DataArray>
      </Cells>

  <PointData>
        <DataArray type="Float64" Name="displacement" NumberOfComponents="3" format="ascii">
0.000000000000000e+00 0.000000000000000e+00 0.000000000000000e+00
0.000000000000000e+00 0.000000000000000e+00 0.000000000000000e+00
0.000000000000000e+00 0.000000000000000e+00 0.000000000000000e+00
0.000000000000000e+00 0.000000000000000e+00 0.000000000000000e+00
-2.468961969575432e-02 -2.123357115037665e-03 2.433492218633538e-02
2.306144855034103e-02 1.437765755976656e-03 2.566444978591752e-02
2.327850858067463e-02 1.496470120919964e-03 2.934546852614219e-02
-2.447798254904129e-02 -2.075144603919150e-03 2.787813211545564e-02
0.000000000000000e+00 0.000000000000000e+00 0.000000000000000e+00
0.000000000000000e+00 0.000000000000000e+00 0.000000000000000e+00
0.000000000000000e+00 0.000000000000000e+00 0.000000000000000e+00
0.000000000000000e+00 0.000000000000000e+00 0.000000000000000e+00
-1.293100307197310e-02 -9.924795730182354e-04 6.290935657284371e-03
1.232013088655739e-02 8.023468208273933e-04 6.776633375386474e-03
1.254103901663303e-02 7.688513739400498e-04 8.562762918694476e-03
-1.273905991926441e-02 -1.025826718159360e-03 8.127239339202471e-03
-7.882291846696929e-04 -2.874096633692346e-04 2.498646012685425e-02
2.317023263882200e-02 1.464590447488133e-03 2.743069247409421e-02
-5.971467617807018e-04 -5.253981627501779e-04 2.868667439273460e-02
-2.459155405072604e-02 -2.102285429493602e-03 2.618046574455600e-02
-2.340583127130013e-04 -7.795553458433564e-05 7.433638955763632e-03
0.000000000000000e+00 0.000000000000000e+00 0.000000000000000e+00
-6.985419158494754e-04 -3.997144860338678e-04 2.683028621555430e-02
-1.284480594697611e-02 -1.007941847172665e-03 7.176507512646864e-03
1.242079236658578e-02 7.867420136176228e-04 7.699990924925635e-03
-3.029099266662534e-04 -1.187108101901464e-04 6.535635471439928e-03
-1.290815378426345e-04 -3.155887207041809e-05 8.332394216081748e-03
-4.520311233529982e-02 -4.130991893971602e-03 9.008380247087872e-02
3.887634395830650e-02 2.531294796582734e-03 9.371422605626104e-02
3.887587454171154e-02 2.522014589491353e-03 1.004193866959232e-01
-4.521324837364694e-02 -4.144667421319153e-03 9.678730714496511e-02
-3.525691177537935e-02 -3.122905406503442e-03 5.273465819919488e-02
3.185898426812300e-02 2.045917319404907e-03 5.509215969130344e-02
3.194570408745297e-02 2.018313323890089e-03 6.030317052011514e-02
-3.515643285500161e-02 -3.155162462703281e-03 5.795050182301894e-02
-3.148478329259318e-03 -7.968809562407707e-04 9.189543150756922e-02
3.886984639995764e-02 2.526297437266469e-03 9.706302305156050e-02
-3.143717233482352e-03 -8.306462221412144e-04 9.863004538257890e-02
-4.521578328513167e-02 -4.138214738039232e-03 9.343719868143553e-02
-1.622285993718084e-03 -5.366663002436522e-04 5.652373518283891e-02
-3.168003029892862e-03 -8.129543415863783e-04 9.525857969144513e-02
-3.519651367933608e-02 -3.138158541347994e-03 5.533085252019788e-02
3.190975762586930e-02 2.032859693370644e-03 5.770779743517158e-02
-1.691587492142676e-03 -5.502726243096224e-04 5.391199635281300e-02
-1.586627369514423e-03 -5.194309103931706e-04 5.913703120219180e-02
-6.330896946468344e-02 -6.067510926869971e-03 1.870349182662913e-01
4.736378951787417e-02 3.244833697034574e-03 1.931920969651691e-01
4.702184444352242e-02 3.178714704606801e-03 2.025255074900536e-01
-6.365686374556728e-02 -6.137129466856404e-03 1.964046021164607e-01
-5.445146959263045e-02 -5.121372249168152e-03 1.352288214834145e-01
4.394411219955983e-02 2.925788605506153e-03 1.401412599593882e-01
4.376706272373009e-02 2.902486201266184e-03 1.482424694962164e-01
-5.462381821968604e-02 -5.150280232813782e-03 1.433145365112573e-01
-7.966066520713079e-03 -1.431540781444759e-03 1.901136476516559e-01
4.718985718035325e-02 3.212704749101624e-03 1.978814086492552e-01
-8.294848586416411e-03 -1.394427916512805e-03 1.994704842030788e-01
-6.348062308300789e-02 -6.100951596694751e-03 1.916949658879047e-01
-5.323904302431814e-03 -1.121873683915726e-03 1.417420056506736e-01
-8.137151515365806e-03 -1.415645745019015e-03 1.947902567601020e-01
-5.453686661956326e-02 -5.136244469402363e-03 1.392803313032276e-01
4.385790927351067e-02 2.913856919038660e-03 1.441820197452994e-01
-5.247640839001936e-03 -1.090583644887720e-03 1.376803708172900e-01
-5.412885679327778e-03 -1.154918940007432e-03 1.458080522376288e-01
-7.968597866920110e-02 -7.890399736838093e-03 3.065186812453236e-01
4.939033627315349e-02 3.629480267157599e-03 3.148489781608858e-01
4.866903880607689e-02 3.538286501490927e-03 3.263763436535279e-01
-8.040963824862252e-02 -7.985662157524272e-03 3.180792085943073e-01
-7.164769993729879e-02 -7.015282069769730e-03 2.444397859761368e-01
4.906781973429690e-02 3.460907447127719e-03 2.517621829376197e-01
4.853534932472769e-02 3.424168174954131e-03 2.622832646307342e-01
-7.217807031285844e-02 -7.057447411420037e-03 2.549409608780791e-01
-1.514725511791309e-02 -2.149623542210670e-03 3.106834325953882e-01
4.902886582116836e-02 3.584858094641325e-03 3.206338526441672e-01
-1.585469655960528e-02 -2.139683852979638e-03 3.222327529482463e-01
-8.004272804309670e-02 -7.936550113875875e-03 3.122761481381224e-01
-1.154620130922105e-02 -1.815351781473333e-03 2.533677275166851e-01
-1.549727072236515e-02 -2.147435878267657e-03 3.164574615284072e-01
-7.191506995617884e-02 -7.037217704468616e-03 2.497033562961081e-01
4.880281724934712e-02 3.441972662950810e-03 2.570083374566320e-01
-1.128421071155368e-02 -1.765544771391967e-03 2.480957422170379e-01
-1.180664075310510e-02 -1.868514944426214e-03 2.586460225946418e-01
-9.461456453260113e-02 -9.543330119732754e-03 4.412380056760106e-01
4.621230378200848e-02 3.742455551160664e-03 4.511417230139722e-01
4.513891061941770e-02 3.643809175584224e-03 4.644228217066138e-01
-9.568673473080806e-02 -9.646558694707801e-03 4.545325518516038e-01
-8.728879248338571e-02 -8.752601852251286e-03 3.723695398705318e-01
4.833042632887478e-02 3.708324914076609e-03 3.815722951793293e-01
4.743358394549357e-02 3.644061372919077e-03 3.940523377381591e-01
-8.818593531728479e-02 -8.822013312269358e-03 3.848403388307766e-01
-2.420230137767449e-02 -2.908282133380633e-03 4.461876940673640e-01
4.567619769216546e-02 3.693601552275199e-03 4.577903783343385e-01
-2.526589856332283e-02 -2.965292041853256e-03 4.594902560113313e-01
-9.514748760255604e-02 -9.594241000957205e-03 4.478758209116879e-01
-1.992275438358046e-02 -2.566730168640037e-03 3.832182841685675e-01
-2.472835833734082e-02 -2.938058094591225e-03 4.528381064011608e-01
-8.773945816702142e-02 -8.787868635146988e-03 3.786116664470934e-01
4.788207532391521e-02 3.675826045367744e-03 3.878038793680924e-01
-1.947458745461035e-02 -2.515314882728661e-03 3.769662185143169e-01
-2.036348768508814e-02 -2.620336224100694e-03 3.894771189434029e-01
-1.082317191853452e-01 -1.097627411669749e-02 5.853095066084912e-01
3.920562477897303e-02 3.635254694516965e-03 5.961644847563601e-01
3.783910202756449e-02 3.530802092275148e-03 6.107544696761058e-01
-1.095957822832021e-01 -1.108565563755530e-02 5.998998915882274e-01
-1.015540039016997e-01 -1.029193860715451e-02 5.124162301307460e-01
4.307668945557467e-02 3.712475625911296e-03 5.228643131285339e-01
4.185416918120240e-02 3.620385807264031e-03 5.368583941750066e-01
-1.027783685467139e-01 -1.038900018246697e-02 5.264111976295144e-01
-3.451358505265491e-02 -3.670079950456836e-03 5.907331857335415e-01
3.852304896066858e-02 3.583080878484447e-03 6.034582737944960e-01
-3.587515774329583e-02 -3.777890328851446e-03 6.053483431575499e-01
-1.089132086785654e-01 -1.103092536057828e-02 5.926043856896993e-01
-2.984725374308292e-02 -3.339029853440415e-03 5.246452843907596e-01
-3.519139853362704e-02 -3.724009648877366e-03 5.980388697771966e-01
-1.021667215377276e-01 -1.034058620678784e-02 5.194136072607686e-01
4.246511762966203e-02 3.666337071629388e-03 5.298597642388183e-01
-2.923614449216731e-02 -3.288711024741970e-03 5.176362519159929e-01
-3.045314033135015e-02 -3.389885791211628e-03 5.316601600975214e-01
-1.207093583905007e-01 -1.215067748169039e-02 7.342811942463700e-01
2.968436151904389e-02 3.347449757787607e-03 7.455795212935744e-01
2.809309289740234e-02 3.234613387043403e-03 7.610366496504661e-01
-1.222992862666235e-01 -1.226858229068693e-02 7.497336089193716e-01
-1.145810509353120e-01 -1.159552552905300e-02 6.594061550682873e-01
3.466644979945606e-02 3.513236613623684e-03 6.705285714826976e-01
3.318135428191325e-02 3.401228879484076e-03 6.856011347430651e-01
-1.160678196461114e-01 -1.171237355092991e-02 6.744837498629014e-01
-4.551178194227643e-02 -4.398915005524823e-03 7.399257521875043e-01
2.888899194822856e-02 3.290932450981999e-03 7.533044620384377e-01
-4.710440798679263e-02 -4.528300306899569e-03 7.554108099826649e-01
-1.215049237334359e-01 -1.220981609326812e-02 7.420093568073368e-01
-4.069851490051803e-02 -4.096076616403465e-03 6.725111152866493e-01
-4.630760405693632e-02 -4.463208545973853e-03 7.476656480826974e-01
-1.153239809747878e-01 -1.165383490682079e-02 6.669419877143578e-01
3.392368370436129e-02 3.457281767762063e-03 6.780662201342947e-01
-3.995645890622413e-02 -4.042717693585437e-03 6.649638571661075e-01
-4.143926511339075e-02 -4.149136730940272e-03 6.800630727017146e-01
-1.323582363330779e-01 -1.303478485333306e-02 8.851406273067260e-01
1.880485527265941e-02 2.910998483875619e-03 8.965590624347604e-01
1.705658421624982e-02 2.790259587254001e-03 9.124364206112167e-01
-1.341020341398219e-01 -1.316055397447624e-02 9.010311952295845e-01
-1.266011224174860e-01 -1.262856926479952e-02 8.096071884213915e-01
2.434255728498661e-02 3.146812919125881e-03 8.209877286888100e-01
2.265939659326526e-02 3.024021479370401e-03 8.367041318019449e-01
-1.282846670083828e-01 -1.275625663219558e-02 8.253331695813164e-01
-5.677338598317437e-02 -5.060107156767427e-03 8.908455835795532e-01
1.793067415593151e-02 2.850539866470017e-03 9.044959017482673e-01
-5.854299550393591e-02 -5.191953389682045e-03 9.067568116654049e-01
-1.332303979435363e-01 -1.309779302059538e-02 8.930862339077511e-01
-5.196938543884519e-02 -4.800546048526010e-03 8.231638724961877e-01
-5.765751463541426e-02 -5.125731679930070e-03 8.987986493537915e-01
-1.274421957911391e-01 -1.269227069111545e-02 8.174671462694272e-01
2.350096069189433e-02 3.085487379887068e-03 8.288474105445941e-01
-5.112941619430228e-02 -4.742177601678580e-03 8.152940225401577e-01
-5.281008604796895e-02 -4.858530563804760e-03 8.310379583195404e-01
-1.436830653293291e-01 -1.369195322572766e-02 1.036325509946503e+00
7.478422337251725e-03 2.334204211352302e-03 1.047742438942109e+00
5.731307813276493e-03 2.209046888171194e-03 1.063689382572270e+00
-1.454190105533700e-01 -1.381724834708213e-02 1.052265101304998e+00
-1.380317830214750e-01 -1.337217611121662e-02 9.607343422313317e-01
1.315453994797522e-02 2.643250991881353e-03 9.721539659935357e-01
1.138623073434407e-02 2.516730831145969e-03 9.880955147406596e-01
-1.397830145614254e-01 -1.350135100728682e-02 9.766767751913081e-01
-6.810273479962639e-02 -5.679160439107348e-03 1.042034378434342e+00
6.604515850389930e-03 2.271588492611562e-03 1.055715901558441e+00
-6.983902771155337e-02 -5.805229457024005e-03 1.057975483144614e+00
-1.445512149445276e-01 -1.375463334972120e-02 1.044295038797732e+00
-6.332851608349850e-02 -5.426341649338409e-03 9.744171859526238e-01
-6.897212868501558e-02 -5.742124062290516e-03 1.050004840049219e+00
-1.389070575535501e-01 -1.343665524380270e-02 9.687031147027995e-01
1.226997886684238e-02 2.580034537685597e-03 9.801262766512635e-01
-6.243459603068983e-02 -5.366026203112322e-03 9.664425985900702e-01
-6.422629883342924e-02 -5.486361284901498e-03 9.823937931158709e-01
-1.549824414936097e-01 -1.436966643973864e-02 1.187479740419723e+00
-3.837099002389252e-03 1.654502655454870e-03 1.198894272139643e+00
-5.539802221784906e-03 1.528605936950773e-03 1.214842447881752e+00
-1.566846315834590e-01 -1.449560282508123e-02 1.203426360599492e+00
-1.493350643692782e-01 -1.402595996321644e-02 1.111903929952614e+00
1.813643187704245e-03 1.998952829521400e-03 1.123319358067947e+00
1.004226501310768e-04 1.872443638129904e-03 1.139264015093726e+00
-1.510473857507292e-01 -1.415244718731939e-02 1.127849358487482e+00
-7.940967553364822e-02 -6.357465184992119e-03 1.193187136950599e+00
-4.688123128206850e-03 1.591543423175368e-03 1.206868419136403e+00
-8.111282510470778e-02 -6.483484583776469e-03 1.209133734049080e+00
-1.558332470533310e-01 -1.443264444169576e-02 1.195453040531766e+00
-7.461672252129828e-02 -6.076906907617390e-03 1.125584303568829e+00
-8.026122158945306e-02 -6.420458340288669e-03 1.201160467750189e+00
-1.501913162131280e-01 -1.408919886212638e-02 1.119876654806213e+00
9.569214091566247e-04 1.935703470004051e-03 1.131291662919696e+00
-7.376064933121640e-02 -6.013643672136922e-03 1.117611601159579e+00
-7.547281251009488e-02 -6.140156002502698e-03 1.133557031045255e+00
-1.923493182746636e-04 1.187246502841858e-03 7.164562481076343e-03
3.320407471016112e-01 -5.186039518262858e-02 1.030815601748558e-02
-1.972135921539624e-03 -4.412754134928276e-04 6.834324408697243e-02
3.357318533091089e-01 -9.141649979276936e-02 1.610607120455222e-02
-6.924299515462883e-03 -1.230998619245992e-03 1.739408137756824e-01
3.392209132591350e-01 -1.187441550695932e-01 2.038941236426172e-02
-1.510211568904225e-02 -2.090770479288434e-03 3.106209088466651e-01
3.422979804785029e-01 -1.360372239980056e-01 2.325785559207506e-02
-2.576719204132871e-02 -3.003962612273127e-03 4.670123576310984e-01
3.447142325646984e-01 -1.455394288873279e-01 2.495262377457156e-02
-3.796032290111573e-02 -3.904241897463138e-03 6.343149961938135e-01
3.463158491694093e-01 -1.495368953525548e-01 2.576078613058361e-02
-5.084817692977778e-02 -4.735846252402872e-03 8.062941487221200e-01
3.470819897556355e-01 -1.502687470486231e-01 2.600790280087610e-02
-6.391693018594717e-02 -5.466461945840722e-03 9.792594760551124e-01
        </DataArray>
        <DataArray type="Float64" Name="force_beam" NumberOfComponents="3" format="ascii">
0.000000000000000e+00 0.000000000000000e+00 0.000000000000000e+00
0.000000000000000e+00 0.000000000000000e+00 0.000000000000000e+00
0.000000000000000e+00 0.000000000000000e+00 0.000000000000000e+00
0.000000000000000e+00 0.000000000000000e+00 0.000000000000000e+00
0.000000000000000e+00 0.000000000000000e+00 0.000000000000000e+00
0.000000000000000e+00 0.000000000000000e+00 0.000000000000000e+00
0.000000000000000e+00 0.000000000000000e+00 0.000000000000000e+00
0.000000000000000e+00 0.000000000000000e+00 0.000000000000000e+00
0.000000000000000e+00 0.000000000000000e+00 0.000000000000000e+00
0.000000000000000e+00 0.000000000000000e+00 0.000000000000000e+00
0.000000000000000e+00 0.000000000000000e+00 0.000000000000000e+00
0.000000000000000e+00 0.000000000000000e+00 0.000000000000000e+00
0.000000000000000e+00 0.000000000000000e+00 0.000000000000000e+00