<?xml version="1.0" ?> 
<!-- 
# vtk DataFile Version 3.0
-->
<VTKFile type="UnstructuredGrid" version="0.1" compressor="vtkZLibDataCompressor" byte_order="LittleEndian">
  <UnstructuredGrid>
    <FieldData>
      <DataArray type="Float64" Name="TIME" NumberOfTuples="1" format="ascii">
1
      </DataArray>
    </FieldData>

    <Piece NumberOfPoints="30" NumberOfCells="0" >
      <Points>
        <DataArray type="Float64" NumberOfComponents="3" format="ascii">
-4.500000000000000e+00 3.000000000000000e-01 0.000000000000000e+00
-4.000000000000000e+00 3.000000000000000e-01 0.000000000000000e+00
-4.000000000000001e+00 3.000000000000000e-01 0.000000000000000e+00
-3.357142857140000e+00 3.000000000000000e-01 0.000000000000000e+00
-3.357142857140000e+00 3.000000000000000e-01 0.000000000000000e+00
-3.000000000000000e+00 3.000000000000000e-01 0.000000000000000e+00
-3.000000000000000e+00 3.000000000000000e-01 0.000000000000000e+00
-2.214285714290000e+00 3.000000000000000e-01 0.000000000000000e+00
-2.214285714290000e+00 3.000000000000000e-01 0.000000000000000e+00
-2.000000000000000e+00 3.000000000000000e-01 0.000000000000000e+00
-2.000000000000001e+00 3.000000000000000e-01 0.000000000000000e+00
-1.071428571430000e+00 3.000000000000000e-01 0.000000000000000e+00
-1.071428571430000e+00 3.000000000000000e-01 0.000000000000000e+00
-1.000000000000000e+00 3.000000000000000e-01 0.000000000000000e+00
-1.000000000000000e+00 2.999999999999999e-01 0.000000000000000e+00
1.249000902703301e-16 3.000000000000000e-01 0.000000000000000e+00
-8.604228440844963e-16 3.000000000000000e-01 0.000000000000000e+00
7.142857142860000e-02 3.000000000000000e-01 0.000000000000000e+00
7.142857142860000e-02 3.000000000000000e-01 0.000000000000000e+00
1.000000000000000e+00 2.999999999999999e-01 0.000000000000000e+00
9.999999999999997e-01 3.000000000000000e-01 0.000000000000000e+00
1.214285714290000e+00 3.000000000000000e-01 0.000000000000000e+00
1.214285714290000e+00 3.000000000000000e-01 0.000000000000000e+00
2.000000000000000e+00 3.000000000000000e-01 0.000000000000000e+00
2.000000000000001e+00 3.000000000000000e-01 0.000000000000000e+00
2.357142857140000e+00 3.000000000000000e-01 0.000000000000000e+00
2.357142857140000e+00 3.000000000000000e-01 0.000000000000000e+00
3.000000000000000e+00 3.000000000000000e-01 0.000000000000000e+00
3.000000000000004e+00 3.000000000000000e-01 0.000000000000000e+00
3.500000000000000e+00 3.000000000000000e-01 0.000000000000000e+00
        </DataArray>
      </Points>

      <Cells>
        <DataArray type="Int32" Name="connectivity" format="ascii">
0 1 2 3 4 5 6 7 8 9 10 11 12 13 14 15 16 17 18 19 20 21 22 23 24 25 26 27 28 29 
        </DataArray>
        <DataArray type="Int32" Name="offsets" format="ascii">

        </DataArray>
        <DataArray type="UInt8" Name="types" format="ascii">

        </DataArray>
      </Cells>

  <PointData>
        <DataArray type="Float64" Name="displacement" NumberOfComponents="3" format="ascii">
-1.015521885539883e-03 -7.205781866659322e-05 1.411010515946848e-02
-2.776318202556638e-03 -2.777357701432281e-04 5.538437413001177e-02
-2.776318202556638e-03 -2.777357701432281e-04 5.538437413001168e-02
-7.853208875361783e-03 -9.035489348621084e-04 1.342363267871151e-01
-7.853208875361783e-03 -9.035489348621084e-04 1.342363267871151e-01
-1.245877458909517e-02 -1.462874340013298e-03 1.912099302428712e-01
-1.245877458909606e-02 -1.462874340013354e-03 1.912099302428712e-01
-2.685255689878163e-02 -3.136837394085323e-03 3.404822533631848e-01
-2.685255689878163e-02 -3.136837394085323e-03 3.404822533631848e-01
-3.190223803398951e-02 -3.698229368099826e-03 3.867647517308762e-01
-3.190223803398995e-02 -3.698229368099770e-03 3.867647517308760e-01
-5.818309217919282e-02 -6.549861665939238e-03 6.062142047802813e-01
-5.818309217919282e-02 -6.549861665939238e-03 6.062142047802813e-01
-6.050841091085446e-02 -6.796238789024411e-03 6.243186289673521e-01
-6.050841091085446e-02 -6.796238789024356e-03 6.243186289673520e-01
-9.624157549747983e-02 -1.056466254510735e-02 8.895757390371059e-01
-9.624157549747978e-02 -1.056466254510735e-02 8.895757390371054e-01
-9.900884894526470e-02 -1.085467743189900e-02 9.092938809464397e-01
-9.900884894526470e-02 -1.085467743189900e-02 9.092938809464397e-01
-1.366272516027931e-01 -1.481933761888604e-02 1.171245296584647e+00
-1.366272516027931e-01 -1.481933761888610e-02 1.171245296584647e+00
-1.456750733681631e-01 -1.577833390725181e-02 1.232925251147773e+00
-1.456750733681631e-01 -1.577833390725181e-02 1.232925251147773e+00
-1.794413549563152e-01 -1.939323925413794e-02 1.460993685897184e+00
-1.794413549563143e-01 -1.939323925413799e-02 1.460993685897184e+00
-1.950078972798686e-01 -2.107649290358010e-02 1.565352027987430e+00
-1.950078972798686e-01 -2.107649290358010e-02 1.565352027987430e+00
-2.230923026608953e-01 -2.414052539340905e-02 1.753356202505575e+00
-2.230923026608957e-01 -2.414052539340900e-02 1.753356202505576e+00
-2.449722286979927e-01 -2.654264064887807e-02 1.899650306824355e+00
        </DataArray>
      </PointData>

    </Piece>
  </UnstructuredGrid>
</VTKFile>
