<?xml version="1.0" ?> 
<!-- 
# vtk DataFile Version 3.0
-->
<VTKFile type="UnstructuredGrid" version="0.1" compressor="vtkZLibDataCompressor" byte_order="LittleEndian">
  <UnstructuredGrid>
    <FieldData>
      <DataArray type="Float64" Name="TIME" NumberOfTuples="1" format="ascii">
1
      </DataArray>
    </FieldData>

    <Piece NumberOfPoints="21" NumberOfCells="0" >
      <Points>
        <DataArray type="Float64" NumberOfComponents="3" format="ascii">
-4.500000000000000e+00 3.000000000000000e-01 0.000000000000000e+00
-3.357142857140000e+00 3.000000000000000e-01 0.000000000000000e+00
-3.928571428570000e+00 3.000000000000000e-01 0.000000000000000e+00
-3.357142857140000e+00 3.000000000000000e-01 0.000000000000000e+00
-2.214285714290000e+00 3.000000000000000e-01 0.000000000000000e+00
-2.785714285715000e+00 3.000000000000000e-01 0.000000000000000e+00
-2.214285714290000e+00 3.000000000000000e-01 0.000000000000000e+00
-1.071428571430000e+00 3.000000000000000e-01 0.000000000000000e+00
-1.642857142860000e+00 3.000000000000000e-01 0.000000000000000e+00
-1.071428571430000e+00 3.000000000000000e-01 0.000000000000000e+00
7.142857142860000e-02 3.000000000000000e-01 0.000000000000000e+00
-5.000000000007000e-01 3.000000000000000e-01 0.000000000000000e+00
7.142857142860000e-02 3.000000000000000e-01 0.000000000000000e+00
1.214285714290000e+00 3.000000000000000e-01 0.000000000000000e+00
6.428571428593000e-01 3.000000000000000e-01 0.000000000000000e+00
1.214285714290000e+00 3.000000000000000e-01 0.000000000000000e+00
2.357142857140000e+00 3.000000000000000e-01 0.000000000000000e+00
1.785714285715000e+00 3.000000000000000e-01 0.000000000000000e+00
2.357142857140000e+00 3.000000000000000e-01 0.000000000000000e+00
3.500000000000000e+00 3.000000000000000e-01 0.000000000000000e+00
2.928571428570000e+00 3.000000000000000e-01 0.000000000000000e+00
        </DataArray>
      </Points>

      <Cells>
        <DataArray type="Int32" Name="connectivity" format="ascii">
0 1 2 3 4 5 6 7 8 9 10 11 12 13 14 15 16 17 18 19 20 
        </DataArray>
        <DataArray type="Int32" Name="offsets" format="ascii">

        </DataArray>
        <DataArray type="UInt8" Name="types" format="ascii">

        </DataArray>
      </Cells>

  <PointData>
        <DataArray type="Float64" Name="displacement" NumberOfComponents="3" format="ascii">
-1.015521885539883e-03 -7.205781866659322e-05 1.411010515946848e-02
-7.853208875361783e-03 -9.035489348621084e-04 1.342363267871151e-01
-3.147738885350471e-03 -3.238143312649377e-04 6.254401816355808e-02
-7.853208875361783e-03 -9.035489348621084e-04 1.342363267871151e-01
-2.685255689878163e-02 -3.136837394085323e-03 3.404822533631848e-01
-1.575099617598541e-02 -1.857839144671691e-03 2.285645139741672e-01
-2.685255689878163e-02 -3.136837394085323e-03 3.404822533631848e-01
-5.818309217919282e-02 -6.549861665939238e-03 6.062142047802813e-01
-4.114448932426074e-02 -4.715684439702827e-03 4.675625100098727e-01
-5.818309217919282e-02 -6.549861665939238e-03 6.062142047802813e-01
-9.900884894526470e-02 -1.085467743189900e-02 9.092938809464397e-01
-7.765313383440042e-02 -8.609175653001455e-03 7.543114450551032e-01
-9.900884894526470e-02 -1.085467743189900e-02 9.092938809464397e-01
-1.456750733681631e-01 -1.577833390725181e-02 1.232925251147773e+00
-1.218321990010730e-01 -1.325503975806713e-02 1.069390084144122e+00
-1.456750733681631e-01 -1.577833390725181e-02 1.232925251147773e+00
-1.950078972798686e-01 -2.107649290358010e-02 1.565352027987430e+00
-1.701626092084800e-01 -1.839412499787119e-02 1.398571041095023e+00
-1.950078972798686e-01 -2.107649290358010e-02 1.565352027987430e+00
-2.449722286979927e-01 -2.654264064887807e-02 1.899650306824355e+00
-2.199725856004631e-01 -2.379860454540467e-02 1.732472970254604e+00
        </DataArray>
        <DataArray type="Float64" Name="lambda" NumberOfComponents="3" format="ascii">
-7.072698942909007e-04 1.492849709675747e-05 -9.922662896110629e-04
1.550302320572560e-04 8.824052982401909e-06 -5.321260574764086e-04
3.305154482521091e-05 -6.387131572808231e-06 7.986817616545810e-04
1.550302320572560e-04 8.824052982401909e-06 -5.321260574764086e-04
1.552925835589772e-04 4.824902069218580e-06 -1.648217899748832e-04
5.562795946577572e-05 -3.437635302450654e-06 5.497238619968728e-04
1.552925835589772e-04 4.824902069218580e-06 -1.648217899748832e-04
1.046670506019986e-04 2.980530307102038e-06 1.656310918061659e-05
2.219645833300907e-06 -2.064891808513605e-06 4.154479759142118e-04
1.046670506019986e-04 2.980530307102038e-06 1.656310918061659e-05
5.119512464163798e-05 2.392209788596886e-06 9.451072749491697e-05
-2.165247568921086e-05 -1.399957923292956e-06 3.462315991914930e-04
5.119512464163798e-05 2.392209788596886e-06 9.451072749491697e-05
1.283004536964798e-05 2.173634593861819e-06 1.365375956875388e-04
-3.293256792116657e-05 -1.093832058841330e-06 3.097863497297353e-04
1.283004536964798e-05 2.173634593861819e-06 1.365375956875388e-04
-1.395107848367793e-05 1.810197554473233e-06 1.748015958800090e-04
-4.018900674662158e-05 -8.186555280439563e-07 2.829350396918098e-04
-1.395107848367793e-05 1.810197554473233e-06 1.748015958800090e-04
-2.884920915504915e-05 1.526874640865856e-06 2.060315127400529e-04
-4.462730277861977e-05 -4.145023880240403e-07 2.560195156594277e-04
        </DataArray>
      </PointData>

    </Piece>
  </UnstructuredGrid>
</VTKFile>
