<?xml version="1.0" ?> 
<!-- 
# vtk DataFile Version 3.0
-->
<VTKFile type="UnstructuredGrid" version="0.1" compressor="vtkZLibDataCompressor" byte_order="LittleEndian">
  <UnstructuredGrid>
    <FieldData>
      <DataArray type="Float64" Name="TIME" NumberOfTuples="1" format="ascii">
1.000000000000000e+00 
      </DataArray>
    </FieldData>

    <Piece NumberOfPoints="90" NumberOfCells="0" >
      <Points>
        <DataArray type="Float64" NumberOfComponents="3" format="ascii">
-4.483117378550786e+00 3.000000000000000e-01 0.000000000000000e+00
-4.415302346616566e+00 2.999999999999999e-01 0.000000000000000e+00
-4.309654796520799e+00 3.000000000000000e-01 0.000000000000000e+00
-4.190345203479201e+00 3.000000000000000e-01 0.000000000000000e+00
-4.084697653383434e+00 3.000000000000000e-01 0.000000000000000e+00
-4.016882621449212e+00 3.000000000000000e-01 0.000000000000000e+00
-3.978293772422345e+00 3.000000000000000e-01 0.000000000000000e+00
-3.891103017077958e+00 3.000000000000000e-01 0.000000000000000e+00
-3.755270452668511e+00 3.000000000000000e-01 0.000000000000000e+00
-3.601872404471488e+00 3.000000000000000e-01 0.000000000000000e+00
-3.466039840062042e+00 3.000000000000000e-01 0.000000000000000e+00
-3.378849084717655e+00 3.000000000000000e-01 0.000000000000000e+00
-3.345083841819231e+00 3.000000000000000e-01 0.000000000000000e+00
-3.296644533295174e+00 3.000000000000000e-01 0.000000000000000e+00
-3.221181997513087e+00 3.000000000000000e-01 0.000000000000000e+00
-3.135960859626913e+00 3.000000000000000e-01 0.000000000000000e+00
-3.060498323844826e+00 3.000000000000000e-01 0.000000000000000e+00
-3.012059015320769e+00 3.000000000000000e-01 0.000000000000000e+00
-2.973470166294240e+00 3.000000000000000e-01 0.000000000000000e+00
-2.866903687541044e+00 3.000000000000000e-01 0.000000000000000e+00
-2.700886108820030e+00 2.999999999999999e-01 0.000000000000000e+00
-2.513399605469969e+00 3.000000000000000e-01 0.000000000000000e+00
-2.347382026748955e+00 2.999999999999999e-01 0.000000000000000e+00
-2.240815547995759e+00 3.000000000000000e-01 0.000000000000000e+00
-2.207050305097336e+00 3.000000000000000e-01 0.000000000000000e+00
-2.177986719982088e+00 3.000000000000000e-01 0.000000000000000e+00
-2.132709198511568e+00 3.000000000000000e-01 0.000000000000000e+00
-2.081576515778432e+00 2.999999999999999e-01 0.000000000000000e+00
-2.036298994307912e+00 2.999999999999999e-01 0.000000000000000e+00
-2.007235409192664e+00 3.000000000000000e-01 0.000000000000000e+00
-1.968646560165797e+00 3.000000000000000e-01 0.000000000000000e+00
-1.842704358002436e+00 3.000000000000000e-01 0.000000000000000e+00
-1.646501764967742e+00 3.000000000000000e-01 0.000000000000000e+00
-1.424926806462258e+00 3.000000000000000e-01 0.000000000000000e+00
-1.228724213427564e+00 3.000000000000000e-01 0.000000000000000e+00
-1.102782011264202e+00 3.000000000000000e-01 0.000000000000000e+00
-1.069016768365779e+00 3.000000000000000e-01 0.000000000000000e+00
-1.059328906660696e+00 3.000000000000000e-01 0.000000000000000e+00
-1.044236399503856e+00 3.000000000000000e-01 0.000000000000000e+00
-1.027192171926144e+00 3.000000000000000e-01 0.000000000000000e+00
-1.012099664769304e+00 3.000000000000000e-01 0.000000000000000e+00
-1.002411803064221e+00 3.000000000000000e-01 0.000000000000000e+00
-9.662347571015759e-01 3.000000000000000e-01 0.000000000000000e+00
-8.306046932331322e-01 3.000000000000000e-01 0.000000000000000e+00
-6.193095930415983e-01 3.000000000000000e-01 0.000000000000000e+00
-3.806904069584014e-01 3.000000000000000e-01 0.000000000000000e+00
-1.693953067668676e-01 3.000000000000000e-01 0.000000000000000e+00
-3.376524289842391e-02 3.000000000000000e-01 0.000000000000000e+00
2.411803064174108e-03 3.000000000000000e-01 0.000000000000000e+00
1.209966476906670e-02 3.000000000000000e-01 0.000000000000000e+00
2.719217192561100e-02 3.000000000000000e-01 0.000000000000000e+00
4.423639950298895e-02 3.000000000000000e-01 0.000000000000000e+00
5.932890665953314e-02 2.999999999999999e-01 0.000000000000000e+00
6.901676836442583e-02 3.000000000000000e-01 0.000000000000000e+00
1.027820112628498e-01 3.000000000000000e-01 0.000000000000000e+00
2.287242134264008e-01 3.000000000000000e-01 0.000000000000000e+00
4.249268064613904e-01 3.000000000000000e-01 0.000000000000000e+00
6.465017649672092e-01 2.999999999999999e-01 0.000000000000000e+00
8.427043580021989e-01 2.999999999999999e-01 0.000000000000000e+00
9.686465601657499e-01 2.999999999999999e-01 0.000000000000000e+00
1.007235409192664e+00 3.000000000000000e-01 0.000000000000000e+00
1.036298994307912e+00 3.000000000000000e-01 0.000000000000000e+00
1.081576515778432e+00 3.000000000000000e-01 0.000000000000000e+00
1.132709198511568e+00 3.000000000000000e-01 0.000000000000000e+00
1.177986719982088e+00 3.000000000000000e-01 0.000000000000000e+00
1.207050305097336e+00 3.000000000000000e-01 0.000000000000000e+00
1.240815547995760e+00 3.000000000000000e-01 0.000000000000000e+00
1.347382026748956e+00 3.000000000000000e-01 0.000000000000000e+00
1.513399605469969e+00 3.000000000000000e-01 0.000000000000000e+00
1.700886108820030e+00 3.000000000000000e-01 0.000000000000000e+00
1.866903687541043e+00 2.999999999999999e-01 0.000000000000000e+00
1.973470166294240e+00 3.000000000000000e-01 0.000000000000000e+00
2.012059015320769e+00 3.000000000000000e-01 0.000000000000000e+00
2.060498323844826e+00 3.000000000000000e-01 0.000000000000000e+00
2.135960859626913e+00 3.000000000000000e-01 0.000000000000000e+00
2.221181997513087e+00 3.000000000000000e-01 0.000000000000000e+00
2.296644533295174e+00 3.000000000000000e-01 0.000000000000000e+00
2.345083841819231e+00 3.000000000000000e-01 0.000000000000000e+00
2.378849084717655e+00 3.000000000000000e-01 0.000000000000000e+00
2.466039840062042e+00 2.999999999999999e-01 0.000000000000000e+00
2.601872404471488e+00 3.000000000000000e-01 0.000000000000000e+00
2.755270452668511e+00 3.000000000000000e-01 0.000000000000000e+00
2.891103017077958e+00 3.000000000000000e-01 0.000000000000000e+00
2.978293772422345e+00 3.000000000000000e-01 0.000000000000000e+00
3.016882621449212e+00 3.000000000000000e-01 0.000000000000000e+00
3.084697653383434e+00 3.000000000000000e-01 0.000000000000000e+00
3.190345203479200e+00 3.000000000000000e-01 0.000000000000000e+00
3.309654796520799e+00 3.000000000000000e-01 0.000000000000000e+00
3.415302346616566e+00 2.999999999999999e-01 0.000000000000000e+00
3.483117378550788e+00 3.000000000000000e-01 0.000000000000000e+00
        </DataArray>
      </Points>

      <Cells>
        <DataArray type="Int32" Name="connectivity" format="ascii">
0 1 2 3 4 5 6 7 8 9 10 11 12 13 14 15 16 17 18 19 20 21 22 23 24 25 26 27 28 29 30 31 32 33 34 35 36 37 38 39 40 41 42 43 44 45 46 47 48 49 50 51 52 53 54 55 56 57 58 59 60 61 62 63 64 65 66 67 68 69 70 71 72 73 74 75 76 77 78 79 80 81 82 83 84 85 86 87 88 89 
        </DataArray>
        <DataArray type="Int32" Name="offsets" format="ascii">

        </DataArray>
        <DataArray type="UInt8" Name="types" format="ascii">

        </DataArray>
      </Cells>

  <PointData>
        <DataArray type="Float64" Name="displacement" NumberOfComponents="3" format="ascii">
-1.058079293362546e-03 -7.632172972182882e-05 1.528410152485611e-02
-1.237202048612218e-03 -9.499143695157475e-05 2.013724417727825e-02
-1.547782967722178e-03 -1.295025743939804e-04 2.816144011813380e-02
-1.956967860956560e-03 -1.775621458469101e-04 3.795926278993150e-02
-2.383308219299884e-03 -2.293023146937023e-04 4.734382471188786e-02
-2.694033431670739e-03 -2.675590455095134e-04 5.374351516098973e-02
-2.885139555377947e-03 -2.912153695302511e-04 5.752260858271066e-02
-3.358431411237817e-03 -3.500142590794342e-04 6.644397374720130e-02
-4.222742976105920e-03 -4.575368568666138e-04 8.145665864216461e-02
-5.410860853754862e-03 -6.047018538781757e-04 1.001638329999282e-01
-6.676746190338978e-03 -7.602258905577419e-04 1.184023429966992e-01
-7.606571832311282e-03 -8.735957709930520e-04 1.309910247311306e-01
-7.992480881189756e-03 -9.204536571436606e-04 1.360553967259414e-01
-8.562700912158494e-03 -9.897388659399486e-04 1.434348840511729e-01
-9.486392410903211e-03 -1.102104218983713e-03 1.551643817749540e-01
-1.058345551499817e-02 -1.235529684371850e-03 1.687559772162342e-01
-1.160478032186241e-02 -1.359503418410846e-03 1.811007438683750e-01
-1.228599590818336e-02 -1.441985749379204e-03 1.891797067896885e-01
-1.284342973964447e-02 -1.509328142060951e-03 1.957031423374395e-01
-1.445299827591828e-02 -1.702870719733851e-03 2.141246507285125e-01
-1.717629437489698e-02 -2.026755986072049e-03 2.440309267420805e-01
-2.059055483656458e-02 -2.425766492840931e-03 2.796139697158636e-01
-2.393661335635189e-02 -2.809001055900595e-03 3.127650534563676e-01
-2.625417655225082e-02 -3.070015567857576e-03 3.348754590342709e-01
-2.701714007041778e-02 -3.155183481667490e-03 3.420179273531646e-01
-2.768238410986479e-02 -3.229308219264759e-03 3.482056100703372e-01
-2.873200054657277e-02 -3.346158300809310e-03 3.579061534699307e-01
-2.993685723590911e-02 -3.480123071333274e-03 3.689501746333844e-01
-3.102112504275123e-02 -3.600515576654140e-03 3.788082458646810e-01
-3.172576289303697e-02 -3.678667559685433e-03 3.851750159189534e-01
-3.267183682637631e-02 -3.783483688925393e-03 3.936753401637205e-01
-3.584354824381664e-02 -4.133868735254231e-03 4.217892568205553e-01
-4.104483304681006e-02 -4.704792718202011e-03 4.667150369126269e-01
-4.730829105448775e-02 -5.385724915503876e-03 5.190903895170710e-01
-5.320803183035561e-02 -6.020185265125266e-03 5.669086631155572e-01
-5.717379099739728e-02 -6.442802364631850e-03 5.983109444635142e-01
-5.826108858330703e-02 -6.558127091873589e-03 6.068235275092951e-01
-5.857475491935960e-02 -6.591365975798291e-03 6.092724864930583e-01
-5.906457558249567e-02 -6.643268707275218e-03 6.130921189847177e-01
-5.961944409265629e-02 -6.702059473945754e-03 6.174121986636276e-01
-6.011228219929921e-02 -6.754273599723748e-03 6.212433293430215e-01
-6.042937895089540e-02 -6.787866495860606e-03 6.237053601744739e-01
-6.161863453556049e-02 -6.913839233609109e-03 6.329187330681317e-01
-6.614871780723375e-02 -7.393439020693005e-03 6.677306154544886e-01
-7.342702040403593e-02 -8.162996383290100e-03 7.227908709520197e-01
-8.196145133022226e-02 -9.063471595109562e-03 7.861321724340089e-01
-8.978874059115716e-02 -9.887234851328419e-03 8.431969534564225e-01
-9.494294570034822e-02 -1.042845923540514e-02 8.802877038657702e-01
-9.633456890645370e-02 -1.057441336519277e-02 8.902399855327847e-01
-9.670842370933391e-02 -1.061361044279885e-02 8.929092581243014e-01
-9.729184372962951e-02 -1.067476845354948e-02 8.970711322804512e-01
-9.795217111443416e-02 -1.074397202787797e-02 9.017762759688098e-01
-9.853817559595934e-02 -1.080537176569096e-02 9.059471062793162e-01
-9.891496857347468e-02 -1.084484365350336e-02 9.086265607784810e-01
-1.002313251772272e-01 -1.098275856021858e-02 9.179760458925016e-01
-1.051781754337342e-01 -1.150167049986778e-02 9.529760841819608e-01
-1.129967111417042e-01 -1.232368485238627e-02 1.007885520125123e+00
-1.219812535970447e-01 -1.327077156568468e-02 1.070423045010472e+00
-1.300651612377912e-01 -1.412486535821739e-02 1.126231903098848e+00
-1.353137026447957e-01 -1.468024718020861e-02 1.162254459854875e+00
-1.369307617751454e-01 -1.485148120054558e-02 1.173321374778562e+00
-1.381513541940409e-01 -1.498076864689679e-02 1.181665427350362e+00
-1.400574215687824e-01 -1.518272309774582e-02 1.194679406584278e+00
-1.422165046082913e-01 -1.541157082610023e-02 1.209397806777716e+00
-1.441340228737478e-01 -1.561488718545301e-02 1.222449420061172e+00
-1.453676333701688e-01 -1.574572293323551e-02 1.230836257337385e+00
-1.468030527072672e-01 -1.589802809167246e-02 1.240587157574142e+00
-1.513431033526267e-01 -1.638064523325705e-02 1.271393270902415e+00
-1.584442226713279e-01 -1.713808892227503e-02 1.319476202137809e+00
-1.665031784321267e-01 -1.800114133508002e-02 1.373903517790849e+00
-1.736724524966022e-01 -1.877162625173401e-02 1.422203870840617e+00
-1.782899856528273e-01 -1.926906946376333e-02 1.453257162672795e+00
-1.799649416240359e-01 -1.944972250698013e-02 1.464511033959518e+00
-1.820695898468201e-01 -1.967687041018462e-02 1.478644356515904e+00
-1.853530090359612e-01 -2.003155620750369e-02 1.500676907078530e+00
-1.890676418262944e-01 -2.043325664760193e-02 1.525579355501020e+00
-1.923625935891198e-01 -2.078992599405372e-02 1.547647974390064e+00
-1.944803527516585e-01 -2.101932891802710e-02 1.561822301640428e+00
-1.959575031573242e-01 -2.117942696596425e-02 1.571705559268748e+00
-1.997702611135268e-01 -2.159329239769464e-02 1.597220482676320e+00
-2.057058171769248e-01 -2.223926504310825e-02 1.636953067888509e+00
-2.124051294687681e-01 -2.297047705963118e-02 1.681807407293737e+00
-2.183363522679147e-01 -2.361938359431448e-02 1.721518926513671e+00
-2.221441839025444e-01 -2.403658445198836e-02 1.747009900804344e+00
-2.238297829959337e-01 -2.422138953321579e-02 1.758292335656373e+00
-2.267927044464972e-01 -2.454639272433623e-02 1.778121417242936e+00
-2.314108998246094e-01 -2.505327669844803e-02 1.809018675124605e+00
-2.366308510068720e-01 -2.562650281019163e-02 1.843923931702304e+00
-2.412582318900758e-01 -2.613475229396683e-02 1.874846956181100e+00
-2.442315959883228e-01 -2.646130788053869e-02 1.894705330821567e+00
        </DataArray>
        <DataArray type="Float64" Name="force" NumberOfComponents="3" format="ascii">
0.000000000000000e+00 0.000000000000000e+00 0.000000000000000e+00
0.000000000000000e+00 0.000000000000000e+00 0.000000000000000e+00
0.000000000000000e+00 0.000000000000000e+00 0.000000000000000e+00
0.000000000000000e+00 0.000000000000000e+00 0.000000000000000e+00
0.000000000000000e+00 0.000000000000000e+00 0.000000000000000e+00
0.000000000000000e+00 0.000000000000000e+00 0.000000000000000e+00
0.000000000000000e+00 0.000000000000000e+00 0.000000000000000e+00
0.000000000000000e+00 0.000000000000000e+00 0.000000000000000e+00
0.000000000000000e+00 0.000000000000000e+00 0.000000000000000e+00
0.000000000000000e+00 0.000000000000000e+00 0.000000000000000e+00
0.000000000000000e+00 0.000000000000000e+00 0.000000000000000e+00
0.000000000000000e+00 0.000000000000000e+00 0.000000000000000e+00
0.000000000000000e+00 0.000000000000000e+00 0.000000000000000e+00
0.000000000000000e+00 0.000000000000000e+00 0.000000000000000e+00
0.000000000000000e+00 0.000000000000000e+00 0.000000000000000e+00
0.000000000000000e+00 0.000000000000000e+00 0.000000000000000e+00
0.000000000000000e+00 0.000000000000000e+00 0.000000000000000e+00
0.000000000000000e+00 0.000000000000000e+00 0.000000000000000e+00
0.000000000000000e+00 0.000000000000000e+00 0.000000000000000e+00
0.000000000000000e+00 0.000000000000000e+00 0.000000000000000e+00
0.000000000000000e+00 0.000000000000000e+00 0.000000000000000e+00
0.000000000000000e+00 0.000000000000000e+00 0.000000000000000e+00
0.000000000000000e+00 0.000000000000000e+00 0.000000000000000e+00
0.000000000000000e+00 0.000000000000000e+00 0.000000000000000e+00
0.000000000000000e+00 0.000000000000000e+00 0.000000000000000e+00
0.000000000000000e+00 0.000000000000000e+00 0.000000000000000e+00
0.000000000000000e+00 0.000000000000000e+00 0.000000000000000e+00
0.000000000000000e+00 0.000000000000000e+00 0.000000000000000e+00
0.000000000000000e+00 0.000000000000000e+00 0.000000000000000e+00
0.000000000000000e+00 0.000000000000000e+00 0.000000000000000e+00
0.000000000000000e+00 0.000000000000000e+00 0.000000000000000e+00
0.000000000000000e+00 0.000000000000000e+00 0.000000000000000e+00
0.000000000000000e+00 0.000000000000000e+00 0.000000000000000e+00
0.000000000000000e+00 0.000000000000000e+00 0.000000000000000e+00
0.000000000000000e+00 0.000000000000000e+00 0.000000000000000e+00
0.000000000000000e+00 0.000000000000000e+00 0.000000000000000e+00
0.000000000000000e+00 0.000000000000000e+00 0.000000000000000e+00
0.000000000000000e+00 0.000000000000000e+00 0.000000000000000e+00
0.000000000000000e+00 0.000000000000000e+00 0.000000000000000e+00
0.000000000000000e+00 0.000000000000000e+00 0.000000000000000e+00
0.000000000000000e+00 0.000000000000000e+00 0.000000000000000e+00
0.000000000000000e+00 0.000000000000000e+00 0.000000000000000e+00
0.000000000000000e+00 0.000000000000000e+00 0.000000000000000e+00
0.000000000000000e+00 0.000000000000000e+00 0.000000000000000e+00
0.000000000000000e+00 0.000000000000000e+00 0.000000000000000e+00
0.000000000000000e+00 0.000000000000000e+00 0.000000000000000e+00
0.000000000000000e+00 0.000000000000000e+00 0.000000000000000e+00
0.000000000000000e+00 0.000000000000000e+00 0.000000000000000e+00
0.000000000000000e+00 0.000000000000000e+00 0.000000000000000e+00
0.000000000000000e+00 0.000000000000000e+00 0.000000000000000e+00
0.000000000000000e+00 0.000000000000000e+00 0.000000000000000e+00
0.000000000000000e+00 0.000000000000000e+00 0.000000000000000e+00
0.000000000000000e+00 0.000000000000000e+00 0.000000000000000e+00
0.000000000000000e+00 0.000000000000000e+00 0.000000000000000e+00
0.000000000000000e+00 0.000000000000000e+00 0.000000000000000e+00
0.000000000000000e+00 0.000000000000000e+00 0.000000000000000e+00
0.000000000000000e+00 0.000000000000000e+00 0.000000000000000e+00
0.000000000000000e+00 0.000000000000000e+00 0.000000000000000e+00
0.000000000000000e+00 0.000000000000000e+00 0.000000000000000e+00
0.000000000000000e+00 0.000000000000000e+00 0.000000000000000e+00
0.000000000000000e+00 0.000000000000000e+00 0.000000000000000e+00
0.000000000000000e+00 0.000000000000000e+00 0.000000000000000e+00
0.000000000000000e+00 0.000000000000000e+00 0.000000000000000e+00
0.000000000000000e+00 0.000000000000000e+00 0.000000000000000e+00
0.000000000000000e+00 0.000000000000000e+00 0.000000000000000e+00
0.000000000000000e+00 0.000000000000000e+00 0.000000000000000e+00
0.000000000000000e+00 0.000000000000000e+00 0.000000000000000e+00
0.000000000000000e+00 0.000000000000000e+00 0.000000000000000e+00
0.000000000000000e+00 0.000000000000000e+00 0.000000000000000e+00
0.000000000000000e+00 0.000000000000000e+00 0.000000000000000e+00
0.000000000000000e+00 0.000000000000000e+00 0.000000000000000e+00
0.000000000000000e+00 0.000000000000000e+00 0.000000000000000e+00
0.000000000000000e+00 0.000000000000000e+00 0.000000000000000e+00
0.000000000000000e+00 0.000000000000000e+00 0.000000000000000e+00
0.000000000000000e+00 0.000000000000000e+00 0.000000000000000e+00
0.000000000000000e+00 0.000000000000000e+00 0.000000000000000e+00
0.000000000000000e+00 0.000000000000000e+00 0.000000000000000e+00
0.000000000000000e+00 0.000000000000000e+00 0.000000000000000e+00
0.000000000000000e+00 0.000000000000000e+00 0.000000000000000e+00
0.000000000000000e+00 0.000000000000000e+00 0.000000000000000e+00
0.000000000000000e+00 0.000000000000000e+00 0.000000000000000e+00
0.000000000000000e+00 0.000000000000000e+00 0.000000000000000e+00
0.000000000000000e+00 0.000000000000000e+00 0.000000000000000e+00
0.000000000000000e+00 0.000000000000000e+00 0.000000000000000e+00
0.000000000000000e+00 0.000000000000000e+00 0.000000000000000e+00
0.000000000000000e+00 0.000000000000000e+00 0.000000000000000e+00
0.000000000000000e+00 0.000000000000000e+00 0.000000000000000e+00
0.000000000000000e+00 0.000000000000000e+00 0.000000000000000e+00
0.000000000000000e+00 0.000000000000000e+00 0.000000000000000e+00
0.000000000000000e+00 0.000000000000000e+00 0.000000000000000e+00
        </DataArray>
        <DataArray type="Float64" Name="uid_0_pair_beam_id" format="ascii">
1.000000000000000e+01
1.000000000000000e+01
1.000000000000000e+01
1.000000000000000e+01
1.000000000000000e+01
1.000000000000000e+01
1.000000000000000e+01
1.000000000000000e+01
1.000000000000000e+01
1.000000000000000e+01
1.000000000000000e+01
1.000000000000000e+01
1.100000000000000e+01
1.100000000000000e+01
1.100000000000000e+01
1.100000000000000e+01
1.100000000000000e+01
1.100000000000000e+01
1.100000000000000e+01
1.100000000000000e+01
1.100000000000000e+01
1.100000000000000e+01
1.100000000000000e+01
1.100000000000000e+01
1.200000000000000e+01
1.200000000000000e+01
1.200000000000000e+01
1.200000000000000e+01
1.200000000000000e+01
1.200000000000000e+01
1.200000000000000e+01
1.200000000000000e+01
1.200000000000000e+01
1.200000000000000e+01
1.200000000000000e+01
1.200000000000000e+01
1.300000000000000e+01
1.300000000000000e+01
1.300000000000000e+01
1.300000000000000e+01
1.300000000000000e+01
1.300000000000000e+01
1.300000000000000e+01
1.300000000000000e+01
1.300000000000000e+01
1.300000000000000e+01
1.300000000000000e+01
1.300000000000000e+01
1.300000000000000e+01
1.300000000000000e+01
1.300000000000000e+01
1.300000000000000e+01
1.300000000000000e+01
1.300000000000000e+01
1.400000000000000e+01
1.400000000000000e+01
1.400000000000000e+01
1.400000000000000e+01
1.400000000000000e+01
1.400000000000000e+01
1.400000000000000e+01
1.400000000000000e+01
1.400000000000000e+01
1.400000000000000e+01
1.400000000000000e+01
1.400000000000000e+01
1.500000000000000e+01
1.500000000000000e+01
1.500000000000000e+01
1.500000000000000e+01
1.500000000000000e+01
1.500000000000000e+01
1.500000000000000e+01
1.500000000000000e+01
1.500000000000000e+01
1.500000000000000e+01
1.500000000000000e+01
1.500000000000000e+01
1.600000000000000e+01
1.600000000000000e+01
1.600000000000000e+01
1.600000000000000e+01
1.600000000000000e+01
1.600000000000000e+01
1.600000000000000e+01
1.600000000000000e+01
1.600000000000000e+01
1.600000000000000e+01
1.600000000000000e+01
1.600000000000000e+01
        </DataArray>
        <DataArray type="Float64" Name="uid_1_pair_solid_id" format="ascii">
0.000000000000000e+00
0.000000000000000e+00
0.000000000000000e+00
0.000000000000000e+00
0.000000000000000e+00
0.000000000000000e+00
1.000000000000000e+00
1.000000000000000e+00
1.000000000000000e+00
1.000000000000000e+00
1.000000000000000e+00
1.000000000000000e+00
1.000000000000000e+00
1.000000000000000e+00
1.000000000000000e+00
1.000000000000000e+00
1.000000000000000e+00
1.000000000000000e+00
2.000000000000000e+00
2.000000000000000e+00
2.000000000000000e+00
2.000000000000000e+00
2.000000000000000e+00
2.000000000000000e+00
2.000000000000000e+00
2.000000000000000e+00
2.000000000000000e+00
2.000000000000000e+00
2.000000000000000e+00
2.000000000000000e+00
3.000000000000000e+00
3.000000000000000e+00
3.000000000000000e+00
3.000000000000000e+00
3.000000000000000e+00
3.000000000000000e+00
3.000000000000000e+00
3.000000000000000e+00
3.000000000000000e+00
3.000000000000000e+00
3.000000000000000e+00
3.000000000000000e+00
4.000000000000000e+00
4.000000000000000e+00
4.000000000000000e+00
4.000000000000000e+00
4.000000000000000e+00
4.000000000000000e+00
5.000000000000000e+00
5.000000000000000e+00
5.000000000000000e+00
5.000000000000000e+00
5.000000000000000e+00
5.000000000000000e+00
5.000000000000000e+00
5.000000000000000e+00
5.000000000000000e+00
5.000000000000000e+00
5.000000000000000e+00
5.000000000000000e+00
6.000000000000000e+00
6.000000000000000e+00
6.000000000000000e+00
6.000000000000000e+00
6.000000000000000e+00
6.000000000000000e+00
6.000000000000000e+00
6.000000000000000e+00
6.000000000000000e+00
6.000000000000000e+00
6.000000000000000e+00
6.000000000000000e+00
7.000000000000000e+00
7.000000000000000e+00
7.000000000000000e+00
7.000000000000000e+00
7.000000000000000e+00
7.000000000000000e+00
7.000000000000000e+00
7.000000000000000e+00
7.000000000000000e+00
7.000000000000000e+00
7.000000000000000e+00
7.000000000000000e+00
8.000000000000000e+00
8.000000000000000e+00
8.000000000000000e+00
8.000000000000000e+00
8.000000000000000e+00
8.000000000000000e+00
        </DataArray>
      </PointData>

    </Piece>
  </UnstructuredGrid>
</VTKFile>
