<?xml version="1.0" ?> 
<!-- 
# vtk DataFile Version 3.0
-->
<VTKFile type="UnstructuredGrid" version="0.1" compressor="vtkZLibDataCompressor" byte_order="LittleEndian">
  <UnstructuredGrid>
    <FieldData>
      <DataArray type="Float64" Name="TIME" NumberOfTuples="1" format="ascii">
1e-08
      </DataArray>
    </FieldData>

    <Piece NumberOfPoints="90" NumberOfCells="0" >
      <Points>
        <DataArray type="Float64" NumberOfComponents="3" format="ascii">
-4.483117378550786e+00 3.000000000000000e-01 0.000000000000000e+00
-4.415302346616566e+00 2.999999999999999e-01 0.000000000000000e+00
-4.309654796520799e+00 3.000000000000000e-01 0.000000000000000e+00
-4.190345203479201e+00 3.000000000000000e-01 0.000000000000000e+00
-4.084697653383434e+00 3.000000000000000e-01 0.000000000000000e+00
-4.016882621449212e+00 3.000000000000000e-01 0.000000000000000e+00
-3.978293772422345e+00 2.999999999999999e-01 0.000000000000000e+00
-3.891103017077958e+00 3.000000000000000e-01 0.000000000000000e+00
-3.755270452668511e+00 2.999999999999999e-01 0.000000000000000e+00
-3.601872404471489e+00 3.000000000000000e-01 0.000000000000000e+00
-3.466039840062042e+00 3.000000000000000e-01 0.000000000000000e+00
-3.378849084717655e+00 3.000000000000000e-01 0.000000000000000e+00
-3.345083841819231e+00 3.000000000000000e-01 0.000000000000000e+00
-3.296644533295174e+00 3.000000000000000e-01 0.000000000000000e+00
-3.221181997513088e+00 3.000000000000000e-01 0.000000000000000e+00
-3.135960859626913e+00 3.000000000000000e-01 0.000000000000000e+00
-3.060498323844825e+00 2.999999999999999e-01 0.000000000000000e+00
-3.012059015320769e+00 2.999999999999999e-01 0.000000000000000e+00
-2.973470166294240e+00 3.000000000000000e-01 0.000000000000000e+00
-2.866903687541044e+00 3.000000000000000e-01 0.000000000000000e+00
-2.700886108820030e+00 2.999999999999999e-01 0.000000000000000e+00
-2.513399605469969e+00 3.000000000000000e-01 0.000000000000000e+00
-2.347382026748956e+00 3.000000000000000e-01 0.000000000000000e+00
-2.240815547995760e+00 3.000000000000000e-01 0.000000000000000e+00
-2.207050305097336e+00 3.000000000000000e-01 0.000000000000000e+00
-2.177986719982088e+00 3.000000000000000e-01 0.000000000000000e+00
-2.132709198511568e+00 3.000000000000000e-01 0.000000000000000e+00
-2.081576515778432e+00 2.999999999999999e-01 0.000000000000000e+00
-2.036298994307912e+00 2.999999999999999e-01 0.000000000000000e+00
-2.007235409192664e+00 3.000000000000000e-01 0.000000000000000e+00
-1.968646560165798e+00 3.000000000000000e-01 0.000000000000000e+00
-1.842704358002437e+00 3.000000000000000e-01 0.000000000000000e+00
-1.646501764967743e+00 3.000000000000000e-01 0.000000000000000e+00
-1.424926806462258e+00 3.000000000000000e-01 0.000000000000000e+00
-1.228724213427564e+00 3.000000000000000e-01 0.000000000000000e+00
-1.102782011264203e+00 3.000000000000000e-01 0.000000000000000e+00
-1.069016768365779e+00 3.000000000000000e-01 0.000000000000000e+00
-1.059328906660696e+00 3.000000000000000e-01 0.000000000000000e+00
-1.044236399503856e+00 3.000000000000000e-01 0.000000000000000e+00
-1.027192171926144e+00 3.000000000000000e-01 0.000000000000000e+00
-1.012099664769304e+00 3.000000000000000e-01 0.000000000000000e+00
-1.002411803064221e+00 3.000000000000000e-01 0.000000000000000e+00
-9.662347571015765e-01 3.000000000000000e-01 0.000000000000000e+00
-8.306046932331324e-01 3.000000000000000e-01 0.000000000000000e+00
-6.193095930415985e-01 3.000000000000000e-01 0.000000000000000e+00
-3.806904069584015e-01 3.000000000000000e-01 0.000000000000000e+00
-1.693953067668677e-01 3.000000000000000e-01 0.000000000000000e+00
-3.376524289842391e-02 3.000000000000000e-01 0.000000000000000e+00
2.411803064173351e-03 3.000000000000000e-01 0.000000000000000e+00
1.209966476906614e-02 3.000000000000000e-01 0.000000000000000e+00
2.719217192561044e-02 3.000000000000000e-01 0.000000000000000e+00
4.423639950298875e-02 3.000000000000000e-01 0.000000000000000e+00
5.932890665953305e-02 3.000000000000000e-01 0.000000000000000e+00
6.901676836442583e-02 3.000000000000000e-01 0.000000000000000e+00
1.027820112628499e-01 3.000000000000000e-01 0.000000000000000e+00
2.287242134264009e-01 2.999999999999999e-01 0.000000000000000e+00
4.249268064613906e-01 3.000000000000000e-01 0.000000000000000e+00
6.465017649672098e-01 3.000000000000000e-01 0.000000000000000e+00
8.427043580021993e-01 3.000000000000000e-01 0.000000000000000e+00
9.686465601657502e-01 2.999999999999999e-01 0.000000000000000e+00
1.007235409192664e+00 2.999999999999999e-01 0.000000000000000e+00
1.036298994307912e+00 3.000000000000000e-01 0.000000000000000e+00
1.081576515778432e+00 3.000000000000000e-01 0.000000000000000e+00
1.132709198511568e+00 3.000000000000000e-01 0.000000000000000e+00
1.177986719982088e+00 3.000000000000000e-01 0.000000000000000e+00
1.207050305097336e+00 3.000000000000000e-01 0.000000000000000e+00
1.240815547995760e+00 3.000000000000000e-01 0.000000000000000e+00
1.347382026748956e+00 2.999999999999999e-01 0.000000000000000e+00
1.513399605469970e+00 3.000000000000000e-01 0.000000000000000e+00
1.700886108820030e+00 2.999999999999999e-01 0.000000000000000e+00
1.866903687541044e+00 2.999999999999999e-01 0.000000000000000e+00
1.973470166294240e+00 3.000000000000000e-01 0.000000000000000e+00
2.012059015320770e+00 2.999999999999999e-01 0.000000000000000e+00
2.060498323844827e+00 3.000000000000000e-01 0.000000000000000e+00
2.135960859626914e+00 3.000000000000000e-01 0.000000000000000e+00
2.221181997513087e+00 3.000000000000000e-01 0.000000000000000e+00
2.296644533295174e+00 3.000000000000000e-01 0.000000000000000e+00
2.345083841819231e+00 2.999999999999999e-01 0.000000000000000e+00
2.378849084717655e+00 3.000000000000000e-01 0.000000000000000e+00
2.466039840062042e+00 2.999999999999999e-01 0.000000000000000e+00
2.601872404471488e+00 3.000000000000000e-01 0.000000000000000e+00
2.755270452668511e+00 3.000000000000000e-01 0.000000000000000e+00
2.891103017077958e+00 3.000000000000000e-01 0.000000000000000e+00
2.978293772422345e+00 3.000000000000000e-01 0.000000000000000e+00
3.016882621449215e+00 2.999999999999999e-01 0.000000000000000e+00
3.084697653383437e+00 3.000000000000000e-01 0.000000000000000e+00
3.190345203479203e+00 3.000000000000000e-01 0.000000000000000e+00
3.309654796520801e+00 3.000000000000000e-01 0.000000000000000e+00
3.415302346616567e+00 3.000000000000000e-01 0.000000000000000e+00
3.483117378550788e+00 3.000000000000000e-01 0.000000000000000e+00
        </DataArray>
      </Points>

      <Cells>
        <DataArray type="Int32" Name="connectivity" format="ascii">
0 1 2 3 4 5 6 7 8 9 10 11 12 13 14 15 16 17 18 19 20 21 22 23 24 25 26 27 28 29 30 31 32 33 34 35 36 37 38 39 40 41 42 43 44 45 46 47 48 49 50 51 52 53 54 55 56 57 58 59 60 61 62 63 64 65 66 67 68 69 70 71 72 73 74 75 76 77 78 79 80 81 82 83 84 85 86 87 88 89 
        </DataArray>
        <DataArray type="Int32" Name="offsets" format="ascii">

        </DataArray>
        <DataArray type="UInt8" Name="types" format="ascii">

        </DataArray>
      </Cells>

  <PointData>
        <DataArray type="Float64" Name="displacement" NumberOfComponents="3" format="ascii">
-2.033406131278781e-04 1.002425978620824e-03 7.761279716559625e-03
-2.496446349535830e-04 3.659766252648300e-04 1.022784189723304e-02
-3.300691172887227e-04 -3.204280634113155e-04 1.430590110489397e-02
-4.362255743739496e-04 -7.229234031985721e-04 1.928607611232427e-02
-5.469946396825520e-04 -8.234996051645349e-04 2.405772384667445e-02
-6.277962515657265e-04 -7.939430689726801e-04 2.731280016446674e-02
-6.775140925947554e-04 -7.524921318254885e-04 2.923542740078585e-02
-8.007004055672340e-04 -6.130848344194084e-04 3.377564944081943e-02
-1.025800340169969e-03 -3.443412411199831e-04 4.142057277474703e-02
-1.335405222008479e-03 -1.229749447150819e-04 5.095514448220237e-02
-1.665394886976035e-03 -1.573191045097788e-04 6.025933890906774e-02
-1.907826302840032e-03 -3.624806240695166e-04 6.668592247866607e-02
-2.008449749620222e-03 -4.873483581984694e-04 6.927229492007091e-02
-2.157105367144752e-03 -6.521268919675305e-04 7.304156845446157e-02
-2.397844206691424e-03 -8.489771259731493e-04 7.903395656649767e-02
-2.683693051908520e-03 -9.946181126462839e-04 8.597963170501113e-02
-2.949762534588007e-03 -1.066690348386246e-03 9.229005858554362e-02
-3.127215586675725e-03 -1.089613571913228e-03 9.642089817165136e-02
-3.272420550842980e-03 -1.096910540373419e-03 9.975698167503094e-02
-3.691697384359927e-03 -1.078056479857759e-03 1.091806723213068e-01
-4.401188697436442e-03 -9.886451497071458e-04 1.244889249483766e-01
-5.291023961038199e-03 -9.168242953017103e-04 1.427184237194976e-01
-6.163539963829123e-03 -9.961164862164473e-04 1.597171908943854e-01
-6.768153301039970e-03 -1.169054974485828e-03 1.710627625532011e-01
-6.967249211014881e-03 -1.248812453266968e-03 1.747291633177889e-01
-7.140848432746871e-03 -1.316319324150328e-03 1.779058339090565e-01
-7.414742917402073e-03 -1.409147838173364e-03 1.828865338455007e-01
-7.729136477338638e-03 -1.497213058770819e-03 1.885578932648109e-01
-8.012057097623426e-03 -1.561649969275991e-03 1.936210123566057e-01
-8.195917786021134e-03 -1.596879517383853e-03 1.968913821177161e-01
-8.442774806397324e-03 -1.636866831168593e-03 2.012581533118840e-01
-9.270367235302723e-03 -1.721946777913819e-03 2.157046611261040e-01
-1.062763860453297e-02 -1.763982369671180e-03 2.388024432401899e-01
-1.226242615747308e-02 -1.784975853000303e-03 2.657495907065241e-01
-1.380276479577858e-02 -1.886188433552927e-03 2.903702820718364e-01
-1.483847936649485e-02 -2.038544424323885e-03 3.065481268790042e-01
-1.512248956021334e-02 -2.095019692956501e-03 3.109349297832750e-01
-1.520442387686494e-02 -2.111838748941663e-03 3.121970435290154e-01
-1.533237171942115e-02 -2.137256550799771e-03 3.141656112633637e-01
-1.547731010657616e-02 -2.164838747120368e-03 3.163921785807782e-01
-1.560604470316851e-02 -2.188294511243416e-03 3.183668112415242e-01
-1.568887345024494e-02 -2.202883001940659e-03 3.196358199689738e-01
-1.599951651384512e-02 -2.254242312098254e-03 3.243849225303696e-01
-1.718279052832383e-02 -2.407804077345366e-03 3.423323359667493e-01
-1.908390359230050e-02 -2.556265390691037e-03 3.707295832979863e-01
-2.131323823278686e-02 -2.662344081716894e-03 4.034136440084164e-01
-2.335808136900774e-02 -2.773096697826383e-03 4.328732797430411e-01
-2.470475657818987e-02 -2.883788894562922e-03 4.520284817211100e-01
-2.506838146220543e-02 -2.921248013940114e-03 4.571692022001783e-01
-2.516607002163167e-02 -2.931937917819427e-03 4.585480480136905e-01
-2.531851984819939e-02 -2.949171807749840e-03 4.606979730465427e-01
-2.549106839906490e-02 -2.969510263857167e-03 4.631286223440192e-01
-2.564419810498590e-02 -2.988321408897709e-03 4.652833231484677e-01
-2.574265959311698e-02 -3.000804433488324e-03 4.666675983531455e-01
-2.608664200421629e-02 -3.044056089623881e-03 4.714979315603327e-01
-2.737926605050367e-02 -3.184875625631245e-03 4.895819299558616e-01
-2.942212939649441e-02 -3.352845928129344e-03 5.179576664524185e-01
-3.176954045267166e-02 -3.496836656968427e-03 5.502826530364239e-01
-3.388163201751337e-02 -3.613460344572994e-03 5.791362427630328e-01
-3.525295896494607e-02 -3.695905887674100e-03 5.977634941289685e-01
-3.567546989955939e-02 -3.723700827480192e-03 6.034867191753847e-01
-3.599439417751538e-02 -3.745643264706666e-03 6.078019878307168e-01
-3.649243055162543e-02 -3.781776664660175e-03 6.145326713997999e-01
-3.705658837468651e-02 -3.825801955245178e-03 6.221452789043085e-01
-3.755763729382711e-02 -3.868000171365793e-03 6.288961668628206e-01
-3.787998641843804e-02 -3.896837464984315e-03 6.332344051119153e-01
-3.825506993069161e-02 -3.931133959267863e-03 6.382783474124842e-01
-3.944134534942423e-02 -4.031141450664744e-03 6.542137107024648e-01
-4.129662974943016e-02 -4.165511517489173e-03 6.790861845908698e-01
-4.340197177489813e-02 -4.295198720594862e-03 7.072413078208089e-01
-4.527478458258005e-02 -4.399827155465719e-03 7.322282399230020e-01
-4.648098737427397e-02 -4.466022528648528e-03 7.482937263569055e-01
-4.691852216978876e-02 -4.490339470489990e-03 7.541161405786931e-01
-4.746830275395819e-02 -4.521374396611488e-03 7.614284615775360e-01
-4.832600940988696e-02 -4.571320321534733e-03 7.728280922340619e-01
-4.929637261746800e-02 -4.630940271745376e-03 7.857132364246350e-01
-5.015712149466545e-02 -4.687455921452033e-03 7.971326966915030e-01
-5.071036066326418e-02 -4.725959715164874e-03 8.044675612121693e-01
-5.109624280911751e-02 -4.753577149240573e-03 8.095819887816980e-01
-5.209206700206437e-02 -4.821416471834539e-03 8.227846715500203e-01
-5.364197262784698e-02 -4.917727049076948e-03 8.433420748143255e-01
-5.539131279864185e-02 -5.015959205546150e-03 8.665472920600985e-01
-5.694061011530271e-02 -5.096812737525658e-03 8.870910592369982e-01
-5.793574274498914e-02 -5.147079539469634e-03 9.002782396616680e-01
-5.837641575120056e-02 -5.169162076100020e-03 9.061150490413400e-01
-5.915130755784270e-02 -5.207992170776832e-03 9.163735790999902e-01
-6.035994292659774e-02 -5.269286589103306e-03 9.323590461061549e-01
-6.172753975387835e-02 -5.341186044807711e-03 9.504198879811582e-01
-6.294143604962921e-02 -5.408728344188540e-03 9.664222667129558e-01
-6.372230880196339e-02 -5.454661414691531e-03 9.767000230624564e-01
        </DataArray>
        <DataArray type="Float64" Name="force" NumberOfComponents="3" format="ascii">
0.000000000000000e+00 0.000000000000000e+00 0.000000000000000e+00
0.000000000000000e+00 0.000000000000000e+00 0.000000000000000e+00
0.000000000000000e+00 0.000000000000000e+00 0.000000000000000e+00
0.000000000000000e+00 0.000000000000000e+00 0.000000000000000e+00
0.000000000000000e+00 0.000000000000000e+00 0.000000000000000e+00
0.000000000000000e+00 0.000000000000000e+00 0.000000000000000e+00
0.000000000000000e+00 0.000000000000000e+00 0.000000000000000e+00
0.000000000000000e+00 0.000000000000000e+00 0.000000000000000e+00
0.000000000000000e+00 0.000000000000000e+00 0.000000000000000e+00
0.000000000000000e+00 0.000000000000000e+00 0.000000000000000e+00
0.000000000000000e+00 0.000000000000000e+00 0.000000000000000e+00
0.000000000000000e+00 0.000000000000000e+00 0.000000000000000e+00
0.000000000000000e+00 0.000000000000000e+00 0.000000000000000e+00
0.000000000000000e+00 0.000000000000000e+00 0.000000000000000e+00
0.000000000000000e+00 0.000000000000000e+00 0.000000000000000e+00
0.000000000000000e+00 0.000000000000000e+00 0.000000000000000e+00
0.000000000000000e+00 0.000000000000000e+00 0.000000000000000e+00
0.000000000000000e+00 0.000000000000000e+00 0.000000000000000e+00
0.000000000000000e+00 0.000000000000000e+00 0.000000000000000e+00
0.000000000000000e+00 0.000000000000000e+00 0.000000000000000e+00
0.000000000000000e+00 0.000000000000000e+00 0.000000000000000e+00
0.000000000000000e+00 0.000000000000000e+00 0.000000000000000e+00
0.000000000000000e+00 0.000000000000000e+00 0.000000000000000e+00
0.000000000000000e+00 0.000000000000000e+00 0.000000000000000e+00
0.000000000000000e+00 0.000000000000000e+00 0.000000000000000e+00
0.000000000000000e+00 0.000000000000000e+00 0.000000000000000e+00
0.000000000000000e+00 0.000000000000000e+00 0.000000000000000e+00
0.000000000000000e+00 0.000000000000000e+00 0.000000000000000e+00
0.000000000000000e+00 0.000000000000000e+00 0.000000000000000e+00
0.000000000000000e+00 0.000000000000000e+00 0.000000000000000e+00
0.000000000000000e+00 0.000000000000000e+00 0.000000000000000e+00
0.000000000000000e+00 0.000000000000000e+00 0.000000000000000e+00
0.000000000000000e+00 0.000000000000000e+00 0.000000000000000e+00
0.000000000000000e+00 0.000000000000000e+00 0.000000000000000e+00
0.000000000000000e+00 0.000000000000000e+00 0.000000000000000e+00
0.000000000000000e+00 0.000000000000000e+00 0.000000000000000e+00
0.000000000000000e+00 0.000000000000000e+00 0.000000000000000e+00
0.000000000000000e+00 0.000000000000000e+00 0.000000000000000e+00
0.000000000000000e+00 0.000000000000000e+00 0.000000000000000e+00
0.000000000000000e+00 0.000000000000000e+00 0.000000000000000e+00
0.000000000000000e+00 0.000000000000000e+00 0.000000000000000e+00
0.000000000000000e+00 0.000000000000000e+00 0.000000000000000e+00
0.000000000000000e+00 0.000000000000000e+00 0.000000000000000e+00
0.000000000000000e+00 0.000000000000000e+00 0.000000000000000e+00
0.000000000000000e+00 0.000000000000000e+00 0.000000000000000e+00
0.000000000000000e+00 0.000000000000000e+00 0.000000000000000e+00
0.000000000000000e+00 0.000000000000000e+00 0.000000000000000e+00
0.000000000000000e+00 0.000000000000000e+00 0.000000000000000e+00
0.000000000000000e+00 0.000000000000000e+00 0.000000000000000e+00
0.000000000000000e+00 0.000000000000000e+00 0.000000000000000e+00
0.000000000000000e+00 0.000000000000000e+00 0.000000000000000e+00
0.000000000000000e+00 0.000000000000000e+00 0.000000000000000e+00
0.000000000000000e+00 0.000000000000000e+00 0.000000000000000e+00
0.000000000000000e+00 0.000000000000000e+00 0.000000000000000e+00
0.000000000000000e+00 0.000000000000000e+00 0.000000000000000e+00
0.000000000000000e+00 0.000000000000000e+00 0.000000000000000e+00
0.000000000000000e+00 0.000000000000000e+00 0.000000000000000e+00
0.000000000000000e+00 0.000000000000000e+00 0.000000000000000e+00
0.000000000000000e+00 0.000000000000000e+00 0.000000000000000e+00
0.000000000000000e+00 0.000000000000000e+00 0.000000000000000e+00
0.000000000000000e+00 0.000000000000000e+00 0.000000000000000e+00
0.000000000000000e+00 0.000000000000000e+00 0.000000000000000e+00
0.000000000000000e+00 0.000000000000000e+00 0.000000000000000e+00
0.000000000000000e+00 0.000000000000000e+00 0.000000000000000e+00
0.000000000000000e+00 0.000000000000000e+00 0.000000000000000e+00
0.000000000000000e+00 0.000000000000000e+00 0.000000000000000e+00
0.000000000000000e+00 0.000000000000000e+00 0.000000000000000e+00
0.000000000000000e+00 0.000000000000000e+00 0.000000000000000e+00
0.000000000000000e+00 0.000000000000000e+00 0.000000000000000e+00
0.000000000000000e+00 0.000000000000000e+00 0.000000000000000e+00
0.000000000000000e+00 0.000000000000000e+00 0.000000000000000e+00
0.000000000000000e+00 0.000000000000000e+00 0.000000000000000e+00
0.000000000000000e+00 0.000000000000000e+00 0.000000000000000e+00
0.000000000000000e+00 0.000000000000000e+00 0.000000000000000e+00
0.000000000000000e+00 0.000000000000000e+00 0.000000000000000e+00
0.000000000000000e+00 0.000000000000000e+00 0.000000000000000e+00
0.000000000000000e+00 0.000000000000000e+00 0.000000000000000e+00
0.000000000000000e+00 0.000000000000000e+00 0.000000000000000e+00
0.000000000000000e+00 0.000000000000000e+00 0.000000000000000e+00
0.000000000000000e+00 0.000000000000000e+00 0.000000000000000e+00
0.000000000000000e+00 0.000000000000000e+00 0.000000000000000e+00
0.000000000000000e+00 0.000000000000000e+00 0.000000000000000e+00
0.000000000000000e+00 0.000000000000000e+00 0.000000000000000e+00
0.000000000000000e+00 0.000000000000000e+00 0.000000000000000e+00
0.000000000000000e+00 0.000000000000000e+00 0.000000000000000e+00
0.000000000000000e+00 0.000000000000000e+00 0.000000000000000e+00
0.000000000000000e+00 0.000000000000000e+00 0.000000000000000e+00
0.000000000000000e+00 0.000000000000000e+00 0.000000000000000e+00
0.000000000000000e+00 0.000000000000000e+00 0.000000000000000e+00
0.000000000000000e+00 0.000000000000000e+00 0.000000000000000e+00
        </DataArray>
      </PointData>

    </Piece>
  </UnstructuredGrid>
</VTKFile>
