<?xml version="1.0" ?> 
<!-- 
# vtk DataFile Version 3.0
-->
<VTKFile type="UnstructuredGrid" version="0.1" compressor="vtkZLibDataCompressor" byte_order="LittleEndian">
  <UnstructuredGrid>
    <FieldData>
      <DataArray type="Float64" Name="TIME" NumberOfTuples="1" format="ascii">
1e-08
      </DataArray>
    </FieldData>

    <Piece NumberOfPoints="90" NumberOfCells="15" >
      <Points>
        <DataArray type="Float64" NumberOfComponents="3" format="ascii">
-4.500000000000000e+00 3.000000000000000e-01 0.000000000000000e+00
-4.399999999999999e+00 3.000000000000000e-01 0.000000000000000e+00
-4.300000000000000e+00 3.000000000000000e-01 0.000000000000000e+00
-4.200000000000000e+00 3.000000000000000e-01 0.000000000000000e+00
-4.100000000000001e+00 3.000000000000000e-01 0.000000000000000e+00
-4.000000000000000e+00 3.000000000000000e-01 0.000000000000000e+00
-4.000000000000001e+00 3.000000000000000e-01 0.000000000000000e+00
-3.871428571428001e+00 3.000000000000000e-01 0.000000000000000e+00
-3.742857142856000e+00 3.000000000000000e-01 0.000000000000000e+00
-3.614285714284000e+00 3.000000000000000e-01 0.000000000000000e+00
-3.485714285712000e+00 3.000000000000000e-01 0.000000000000000e+00
-3.357142857140000e+00 3.000000000000000e-01 0.000000000000000e+00
-3.357142857140000e+00 3.000000000000000e-01 0.000000000000000e+00
-3.285714285712000e+00 3.000000000000000e-01 0.000000000000000e+00
-3.214285714284001e+00 3.000000000000000e-01 0.000000000000000e+00
-3.142857142856000e+00 3.000000000000000e-01 0.000000000000000e+00
-3.071428571428000e+00 2.999999999999999e-01 0.000000000000000e+00
-3.000000000000000e+00 3.000000000000000e-01 0.000000000000000e+00
-3.000000000000000e+00 3.000000000000000e-01 0.000000000000000e+00
-2.842857142858000e+00 3.000000000000000e-01 0.000000000000000e+00
-2.685714285716000e+00 3.000000000000000e-01 0.000000000000000e+00
-2.528571428574000e+00 3.000000000000000e-01 0.000000000000000e+00
-2.371428571432000e+00 2.999999999999999e-01 0.000000000000000e+00
-2.214285714290000e+00 3.000000000000000e-01 0.000000000000000e+00
-2.214285714290000e+00 3.000000000000000e-01 0.000000000000000e+00
-2.171428571432000e+00 2.999999999999999e-01 0.000000000000000e+00
-2.128571428574000e+00 3.000000000000000e-01 0.000000000000000e+00
-2.085714285716000e+00 3.000000000000000e-01 0.000000000000000e+00
-2.042857142858000e+00 3.000000000000000e-01 0.000000000000000e+00
-2.000000000000000e+00 3.000000000000000e-01 0.000000000000000e+00
-2.000000000000001e+00 3.000000000000000e-01 0.000000000000000e+00
-1.814285714286000e+00 2.999999999999999e-01 0.000000000000000e+00
-1.628571428572001e+00 3.000000000000000e-01 0.000000000000000e+00
-1.442857142858000e+00 3.000000000000000e-01 0.000000000000000e+00
-1.257142857144000e+00 3.000000000000000e-01 0.000000000000000e+00
-1.071428571430000e+00 3.000000000000000e-01 0.000000000000000e+00
-1.071428571430000e+00 3.000000000000000e-01 0.000000000000000e+00
-1.057142857144000e+00 2.999999999999999e-01 0.000000000000000e+00
-1.042857142858000e+00 3.000000000000000e-01 0.000000000000000e+00
-1.028571428572000e+00 3.000000000000000e-01 0.000000000000000e+00
-1.014285714286000e+00 3.000000000000000e-01 0.000000000000000e+00
-1.000000000000000e+00 3.000000000000000e-01 0.000000000000000e+00
-1.000000000000000e+00 2.999999999999999e-01 0.000000000000000e+00
-8.000000000000002e-01 3.000000000000000e-01 0.000000000000000e+00
-6.000000000000001e-01 3.000000000000000e-01 0.000000000000000e+00
-4.000000000000000e-01 3.000000000000000e-01 0.000000000000000e+00
-1.999999999999999e-01 3.000000000000000e-01 0.000000000000000e+00
1.665334536937735e-16 3.000000000000000e-01 0.000000000000000e+00
-8.604228440844963e-16 3.000000000000000e-01 0.000000000000000e+00
1.428571428571924e-02 3.000000000000000e-01 0.000000000000000e+00
2.857142857143954e-02 2.999999999999999e-01 0.000000000000000e+00
4.285714285715960e-02 2.999999999999999e-01 0.000000000000000e+00
5.714285714287977e-02 3.000000000000000e-01 0.000000000000000e+00
7.142857142860000e-02 3.000000000000000e-01 0.000000000000000e+00
7.142857142860000e-02 3.000000000000000e-01 0.000000000000000e+00
2.571428571428799e-01 2.999999999999999e-01 0.000000000000000e+00
4.428571428571601e-01 3.000000000000000e-01 0.000000000000000e+00
6.285714285714402e-01 3.000000000000000e-01 0.000000000000000e+00
8.142857142857203e-01 3.000000000000000e-01 0.000000000000000e+00
1.000000000000000e+00 2.999999999999999e-01 0.000000000000000e+00
9.999999999999997e-01 3.000000000000000e-01 0.000000000000000e+00
1.042857142858000e+00 3.000000000000000e-01 0.000000000000000e+00
1.085714285716000e+00 3.000000000000000e-01 0.000000000000000e+00
1.128571428574000e+00 3.000000000000000e-01 0.000000000000000e+00
1.171428571432000e+00 3.000000000000000e-01 0.000000000000000e+00
1.214285714290000e+00 3.000000000000000e-01 0.000000000000000e+00
1.214285714290000e+00 3.000000000000000e-01 0.000000000000000e+00
1.371428571432000e+00 2.999999999999999e-01 0.000000000000000e+00
1.528571428574000e+00 3.000000000000000e-01 0.000000000000000e+00
1.685714285716000e+00 3.000000000000000e-01 0.000000000000000e+00
1.842857142858000e+00 3.000000000000000e-01 0.000000000000000e+00
2.000000000000000e+00 3.000000000000000e-01 0.000000000000000e+00
2.000000000000001e+00 3.000000000000000e-01 0.000000000000000e+00
2.071428571428001e+00 3.000000000000000e-01 0.000000000000000e+00
2.142857142856001e+00 3.000000000000000e-01 0.000000000000000e+00
2.214285714284001e+00 3.000000000000000e-01 0.000000000000000e+00
2.285714285712000e+00 2.999999999999999e-01 0.000000000000000e+00
2.357142857140000e+00 3.000000000000000e-01 0.000000000000000e+00
2.357142857140000e+00 3.000000000000000e-01 0.000000000000000e+00
2.485714285712000e+00 3.000000000000000e-01 0.000000000000000e+00
2.614285714284001e+00 3.000000000000000e-01 0.000000000000000e+00
2.742857142856000e+00 3.000000000000000e-01 0.000000000000000e+00
2.871428571428000e+00 3.000000000000000e-01 0.000000000000000e+00
3.000000000000000e+00 3.000000000000000e-01 0.000000000000000e+00
3.000000000000004e+00 3.000000000000000e-01 0.000000000000000e+00
3.100000000000003e+00 3.000000000000000e-01 0.000000000000000e+00
3.200000000000002e+00 3.000000000000000e-01 0.000000000000000e+00
3.300000000000002e+00 3.000000000000000e-01 0.000000000000000e+00
3.400000000000000e+00 3.000000000000000e-01 0.000000000000000e+00
3.500000000000000e+00 3.000000000000000e-01 0.000000000000000e+00
        </DataArray>
      </Points>

      <Cells>
        <DataArray type="Int32" Name="connectivity" format="ascii">
0 1 2 3 4 5 6 7 8 9 10 11 12 13 14 15 16 17 18 19 20 21 22 23 24 25 26 27 28 29 30 31 32 33 34 35 36 37 38 39 40 41 42 43 44 45 46 47 48 49 50 51 52 53 54 55 56 57 58 59 60 61 62 63 64 65 66 67 68 69 70 71 72 73 74 75 76 77 78 79 80 81 82 83 84 85 86 87 88 89 
        </DataArray>
        <DataArray type="Int32" Name="offsets" format="ascii">
6 12 18 24 30 36 42 48 54 60 66 72 78 84 90 
        </DataArray>
        <DataArray type="UInt8" Name="types" format="ascii">
4 4 4 4 4 4 4 4 4 4 4 4 4 4 4 
        </DataArray>
      </Cells>

  <PointData>
        <DataArray type="Float64" Name="displacement" NumberOfComponents="3" format="ascii">
-1.923493182749425e-04 1.187246502841854e-03 7.164562481076343e-03
-2.606216233669301e-04 2.446231793475917e-04 1.080032165848130e-02
-3.380051711809884e-04 -3.665468042330922e-04 1.469366099449717e-02
-4.269377818895137e-04 -7.029011480410019e-04 1.886741942706469e-02
-5.298572756586850e-04 -8.210775522166092e-04 2.334443589412459e-02
-6.492014726608986e-04 -7.777137169006632e-04 2.814754933361759e-02
-6.492014726608986e-04 -7.777137169006632e-04 2.814754933361754e-02
-8.307015252588812e-04 -5.757436830788332e-04 3.483889917232497e-02
-1.048563740167818e-03 -3.207390824654377e-04 4.215560250066136e-02
-1.307969373664619e-03 -1.330756684221890e-04 5.014620038497952e-02
-1.614099682028414e-03 -1.331291943107438e-04 5.885923389163227e-02
-1.972135921539664e-03 -4.412754134928143e-04 6.834324408697243e-02
-1.972135921539664e-03 -4.412754134928143e-04 6.834324408697243e-02
-2.191275993329800e-03 -6.849939381577963e-04 7.390041781108937e-02
-2.420415410863352e-03 -8.636159896645013e-04 7.958894675528423e-02
-2.659993461561871e-03 -9.855376458524079e-04 8.541047406900924e-02
-2.910449432847795e-03 -1.059154984560884e-03 9.136664290171671e-02
-3.172222612140452e-03 -1.092864083629574e-03 9.745909640285892e-02
-3.172222612141340e-03 -1.092864083629574e-03 9.745909640285889e-02
-3.790124987191223e-03 -1.067922969641033e-03 1.113503135787990e-01
-4.469606332583975e-03 -9.798644293730896e-04 1.259265976486834e-01
-5.215344180784509e-03 -9.180898996610232e-04 1.412054448678802e-01
-6.032016064255519e-03 -9.720008173401684e-04 1.572043514917572e-01
-6.924299515462806e-03 -1.230998619245971e-03 1.739408137756824e-01
-6.924299515462806e-03 -1.230998619245971e-03 1.739408137756824e-01
-7.180259674596901e-03 -1.330676697599675e-03 1.786248544659185e-01
-7.439983501472458e-03 -1.416915423210652e-03 1.833436367102718e-01
-7.703493812412976e-03 -1.490710214337554e-03 1.880971189324433e-01
-7.970813423741951e-03 -1.553056489238425e-03 1.928852595561339e-01
-8.241965151783770e-03 -1.604949666171862e-03 1.977080170050446e-01
-8.241965151784214e-03 -1.604949666171918e-03 1.977080170050445e-01
-9.461794816476354e-03 -1.733312035115842e-03 2.190056350071310e-01
-1.075586812981433e-02 -1.765077748547672e-03 2.409491162711882e-01
-1.212604166453213e-02 -1.781244358819156e-03 2.635350777183642e-01
-1.357417199336353e-02 -1.862809418282152e-03 2.867601362698071e-01
-1.510211568904229e-02 -2.090770479288462e-03 3.106209088466651e-01
-1.510211568904229e-02 -2.090770479288462e-03 3.106209088466651e-01
-1.522293333807401e-02 -2.115579130883727e-03 3.124820004778730e-01
-1.534408292594835e-02 -2.139532439147607e-03 3.143456548733904e-01
-1.546556385307496e-02 -2.162650260274401e-03 3.162118648007813e-01
-1.558737551986389e-02 -2.184952450458688e-03 3.180806230276103e-01
-1.570951732672565e-02 -2.206458865894712e-03 3.199519223214411e-01
-1.570951732672565e-02 -2.206458865894656e-03 3.199519223214411e-01
-1.745383155998059e-02 -2.435111802303602e-03 3.464128743056911e-01
-1.926109045292601e-02 -2.566170099632281e-03 3.733506120610023e-01
-2.112964873068024e-02 -2.654119155338641e-03 4.007452897834816e-01
-2.305786111836222e-02 -2.753444366880520e-03 4.285770616692357e-01
-2.504408234109025e-02 -2.918631131715532e-03 4.568260819143714e-01
-2.504408234109023e-02 -2.918631131715532e-03 4.568260819143712e-01
-2.518813154112879e-02 -2.934389972939655e-03 4.588593108593428e-01
-2.533246771076189e-02 -2.950782685413156e-03 4.608945601359370e-01
-2.547709025039954e-02 -2.967829125330224e-03 4.629318225117183e-01
-2.562199856045180e-02 -2.985549148885491e-03 4.649710907542506e-01
-2.576719204132871e-02 -3.003962612273148e-03 4.670123576310984e-01
-2.576719204132871e-02 -3.003962612273148e-03 4.670123576310984e-01
-2.767299816138341e-02 -3.212650567158415e-03 4.936769053279733e-01
-2.961052989516144e-02 -3.365840971607081e-03 5.205627138793609e-01
-3.157805609369080e-02 -3.486128914688691e-03 5.476563190209141e-01
-3.357384560799925e-02 -3.596109485472843e-03 5.749442564882863e-01
-3.559616728911486e-02 -3.718377773028914e-03 6.024130620171304e-01
-3.559616728911486e-02 -3.718377773028969e-03 6.024130620171304e-01
-3.606644198271014e-02 -3.750724541390138e-03 6.087762807377746e-01
-3.653801616563834e-02 -3.785206655990914e-03 6.151482489846486e-01
-3.701086856296909e-02 -3.822101798854560e-03 6.215288012888688e-01
-3.748497789977190e-02 -3.861687652004286e-03 6.279177721815518e-01
-3.796032290111584e-02 -3.904241897463134e-03 6.343149961938135e-01
-3.796032290111584e-02 -3.904241897463134e-03 6.343149961938135e-01
-3.970953313277747e-02 -4.052084310832482e-03 6.578128096793904e-01
-4.146660541383684e-02 -4.176731355225005e-03 6.813619913090734e-01
-4.323121528496010e-02 -4.285303762221415e-03 7.049604024138199e-01
-4.500303828681451e-02 -4.384922263402480e-03 7.286059043245883e-01
-4.678174996006645e-02 -4.482707590348800e-03 7.522963583723368e-01
-4.678174996006534e-02 -4.482707590348800e-03 7.522963583723370e-01
-4.759244475523428e-02 -4.528475426192613e-03 7.630790283334693e-01
-4.840446532117726e-02 -4.576004471441242e-03 7.738703432007269e-01
-4.921778118650710e-02 -4.625963464973348e-03 7.846701021223970e-01
-5.003236187983617e-02 -4.679021145667650e-03 7.954781042467655e-01
-5.084817692977772e-02 -4.735846252402864e-03 8.062941487221200e-01
-5.084817692977772e-02 -4.735846252402864e-03 8.062941487221200e-01
-5.231665434861288e-02 -4.836026898086099e-03 8.257630118117475e-01
-5.378355442982574e-02 -4.926042026642985e-03 8.452202308478863e-01
-5.524975809457944e-02 -5.008332782000968e-03 8.646697434636420e-01
-5.671614626403221e-02 -5.085340308087161e-03 8.841154872921193e-01
-5.818359985934585e-02 -5.159505748828841e-03 9.035613999664232e-01
-5.818359985934585e-02 -5.159505748828896e-03 9.035613999664237e-01
-5.932625316485307e-02 -5.216787771306464e-03 9.186886361072926e-01
-6.047049837021357e-02 -5.274975825611150e-03 9.338202091005122e-01
-6.161674995548250e-02 -5.335218488378424e-03 9.489579716321663e-01
-6.276542240070926e-02 -5.398664336243142e-03 9.641037763883383e-01
-6.391693018594724e-02 -5.466461945840717e-03 9.792594760551124e-01
        </DataArray>
        <DataArray type="Float64" Name="lambda" NumberOfComponents="3" format="ascii">
-1.924824197606842e-04 1.452349915518419e-03 -4.859789778634531e-04
-1.513203484255693e-04 8.056583775835023e-04 -2.165704530850763e-04
-1.137734035580696e-04 2.757965905239091e-04 4.656110059611318e-06
-7.984158515818515e-05 -1.372354456603595e-04 1.777007115706097e-04
-4.952489322591598e-05 -4.334377309693038e-04 3.025633514479188e-04
-2.282332776126203e-05 -6.128102654029236e-04 3.792440296915387e-04
-2.282332776126225e-05 -6.128102654029226e-04 3.792440296915382e-04
6.195233843035173e-06 -6.717638900210160e-04 4.070354887062287e-04
2.923777006203794e-05 -5.375907835985908e-04 3.551792152237044e-04
4.630428089574606e-05 -2.102909461356471e-04 2.236752092439651e-04
5.739476634415952e-05 3.101356223678153e-04 1.252347076701103e-05
6.250922640727832e-05 1.023688921911796e-03 -2.782760002071578e-04
6.250922640727832e-05 1.023688921911796e-03 -2.782760002071578e-04
5.247672757447792e-05 7.125794474159722e-04 -1.589058753022131e-04
4.383564299328527e-05 4.395979036534898e-04 -5.393384722424271e-05
3.658597266370037e-05 2.047442906243494e-04 3.664008402675328e-05
3.072771658572321e-05 8.018608328550772e-06 1.128159184507750e-04
2.626087475935380e-05 -1.505791432339062e-04 1.745936560478222e-04
2.626087475935379e-05 -1.505791432339064e-04 1.745936560478223e-04
2.133160090699639e-05 -3.652838804902599e-04 2.598233779305046e-04
2.313677203245476e-05 -3.954494329963000e-04 2.753663111702762e-04
3.167638813572891e-05 -2.410758007520266e-04 2.212224557671372e-04
4.695044921681884e-05 9.783701624256033e-05 9.739181172108742e-05
6.895895527572453e-05 6.212890179874605e-04 -9.612562096787298e-05
6.895895527572454e-05 6.212890179874608e-04 -9.612562096787306e-05
6.194078317617329e-05 5.066800899033636e-04 -5.532201756659623e-05
5.543123305228726e-05 4.002349616413194e-04 -1.741821885735540e-05
4.943030490406643e-05 3.019536332013282e-04 1.758577515984938e-05
4.393799873151082e-05 2.118361045833900e-04 4.968996448501818e-05
3.895431453462041e-05 1.298823757875047e-04 7.889434911815097e-05
3.895431453462050e-05 1.298823757875063e-04 7.889434911815041e-05
2.323575917824013e-05 -1.309132066025303e-04 1.719378283078924e-04
1.706799425338397e-05 -2.384107701183976e-04 2.105294193939703e-04
2.045101976005202e-05 -1.926103147600954e-04 1.946691223763841e-04
3.338483569824429e-05 6.488159472375893e-06 1.243569372551338e-04
5.586944206796076e-05 3.588846525790163e-04 -4.071359697805283e-07
5.586944206796079e-05 3.588846525790168e-04 -4.071359697806841e-07
5.390599724655667e-05 3.365418946934671e-04 7.787023551753967e-06
5.198553584884681e-05 3.147146759141196e-04 1.578813057477616e-05
5.010805787483127e-05 2.934029962409747e-04 2.359618509928583e-05
4.827356332450999e-05 2.726068556740321e-04 3.121118712528307e-05
4.648205219788300e-05 2.523262542132919e-04 3.863313665276776e-05
4.648205219788303e-05 2.523262542132922e-04 3.863313665276767e-05
2.591415591333244e-05 2.252943991776995e-05 1.222699176924480e-04
1.377101067252499e-05 -1.062217095661200e-04 1.680684090251943e-04
1.005261647546069e-05 -1.339271942383774e-04 1.760286106510065e-04
1.475897332213953e-05 -6.058701409900248e-05 1.461505225698845e-04
2.789008121256154e-05 1.137988308520050e-04 7.843414478182837e-05
2.789008121256145e-05 1.137988308520039e-04 7.843414478182881e-05
2.915039316814351e-05 1.301215059305890e-04 7.214936691532217e-05
3.045368854741817e-05 1.469597201153563e-04 6.567153655031056e-05
3.179996735038544e-05 1.643134734063058e-04 5.900065368679409e-05
3.318922957704532e-05 1.821827658034376e-04 5.213671832477266e-05
3.462147522739778e-05 2.005675973067516e-04 4.507973046424631e-05
3.462147522739778e-05 2.005675973067516e-04 4.507973046424631e-05
1.907108659377512e-05 6.112206958968516e-05 1.039774490727184e-04
8.309673286003833e-06 -2.975211078008774e-05 1.416877579597542e-04
2.337235304083922e-06 -7.205494380256717e-05 1.582106571253539e-04
1.153772648015387e-06 -6.578642947775309e-05 1.535461465695172e-04
4.759285317798227e-06 -1.094656780564554e-05 1.276942262922444e-04
4.759285317798209e-06 -1.094656780564574e-05 1.276942262922445e-04
6.271417873700660e-06 8.606491020495102e-06 1.187195356167392e-04
8.038584618563995e-06 3.074618964629964e-05 1.086165213465560e-04
1.006078555238821e-05 5.547252807176779e-05 9.738518348169486e-05
1.233802067517331e-05 8.278550629689960e-05 8.502552202215583e-05
1.487028998691930e-05 1.126851243216950e-04 7.153753696793888e-05
1.487028998691930e-05 1.126851243216950e-04 7.153753696793888e-05
5.849233051768540e-06 4.443727968405731e-05 1.033329270010338e-04
-1.191202545623961e-06 -4.068786148233685e-06 1.260682194574134e-04
-6.251016805258209e-06 -3.283307317517797e-05 1.397434143370777e-04
-9.330209727134206e-06 -4.185558139677552e-05 1.443585116400266e-04
-1.042878131125195e-05 -3.113631081302635e-05 1.399135113662602e-04
-1.042878131125195e-05 -3.113631081302616e-05 1.399135113662601e-04
-1.027338117584911e-05 -1.973770722363824e-05 1.348979831173020e-04
-9.708761755787554e-06 -4.260223715811064e-06 1.280105338814287e-04
-8.734923051067289e-06 1.529613971045540e-05 1.192511636586403e-04
-7.351865061688316e-06 3.893138305516113e-05 1.086198724489368e-04
-5.559587787650635e-06 6.664550631830611e-05 9.611666025231820e-05
-5.559587787650635e-06 6.664550631830611e-05 9.611666025231820e-05
5.035413917234592e-06 3.049213584766845e-05 1.072686681036449e-04
5.390221827409456e-06 3.608273566446331e-06 1.156118380578091e-04
-4.495164057126049e-06 -1.400608052536025e-05 1.211461701148106e-04
-2.462074373637192e-05 -2.235092642775127e-05 1.238716642746497e-04
-5.498651721032815e-05 -2.142626414072676e-05 1.237883205373263e-04
-5.498651721032924e-05 -2.142626414072659e-05 1.237883205373262e-04
-8.568398117762377e-05 -1.429853349027903e-05 1.217815850102712e-04
-1.225761302799348e-04 -1.563322577148541e-06 1.180756759405034e-04
-1.656629645172625e-04 1.677936859866487e-05 1.126705933280227e-04
-2.149444838896067e-04 4.072954003716126e-05 1.055663371728293e-04
-2.704206883969674e-04 7.028719173834055e-05 9.676290747492293e-05
        </DataArray>
      </PointData>

    </Piece>
  </UnstructuredGrid>
</VTKFile>
