<?xml version="1.0" ?> 
<!-- 
# vtk DataFile Version 3.0
-->
<VTKFile type="UnstructuredGrid" version="0.1" compressor="vtkZLibDataCompressor" byte_order="LittleEndian">
  <UnstructuredGrid>
    <FieldData>
      <DataArray type="Float64" Name="TIME" NumberOfTuples="1" format="ascii">
1
      </DataArray>
    </FieldData>

    <Piece NumberOfPoints="90" NumberOfCells="0" >
      <Points>
        <DataArray type="Float64" NumberOfComponents="3" format="ascii">
-4.483117378550786e+00 3.000000000000000e-01 0.000000000000000e+00
-4.415302346616566e+00 2.999999999999999e-01 0.000000000000000e+00
-4.309654796520799e+00 3.000000000000000e-01 0.000000000000000e+00
-4.190345203479201e+00 3.000000000000000e-01 0.000000000000000e+00
-4.084697653383434e+00 3.000000000000000e-01 0.000000000000000e+00
-4.016882621449212e+00 3.000000000000000e-01 0.000000000000000e+00
-3.978293772422345e+00 2.999999999999999e-01 0.000000000000000e+00
-3.891103017077958e+00 3.000000000000000e-01 0.000000000000000e+00
-3.755270452668511e+00 2.999999999999999e-01 0.000000000000000e+00
-3.601872404471489e+00 3.000000000000000e-01 0.000000000000000e+00
-3.466039840062042e+00 3.000000000000000e-01 0.000000000000000e+00
-3.378849084717655e+00 3.000000000000000e-01 0.000000000000000e+00
-3.345083841819231e+00 3.000000000000000e-01 0.000000000000000e+00
-3.296644533295174e+00 3.000000000000000e-01 0.000000000000000e+00
-3.221181997513088e+00 3.000000000000000e-01 0.000000000000000e+00
-3.135960859626913e+00 3.000000000000000e-01 0.000000000000000e+00
-3.060498323844825e+00 2.999999999999999e-01 0.000000000000000e+00
-3.012059015320769e+00 2.999999999999999e-01 0.000000000000000e+00
-2.973470166294240e+00 3.000000000000000e-01 0.000000000000000e+00
-2.866903687541044e+00 3.000000000000000e-01 0.000000000000000e+00
-2.700886108820030e+00 2.999999999999999e-01 0.000000000000000e+00
-2.513399605469969e+00 3.000000000000000e-01 0.000000000000000e+00
-2.347382026748956e+00 3.000000000000000e-01 0.000000000000000e+00
-2.240815547995760e+00 3.000000000000000e-01 0.000000000000000e+00
-2.207050305097336e+00 3.000000000000000e-01 0.000000000000000e+00
-2.177986719982088e+00 3.000000000000000e-01 0.000000000000000e+00
-2.132709198511568e+00 3.000000000000000e-01 0.000000000000000e+00
-2.081576515778432e+00 2.999999999999999e-01 0.000000000000000e+00
-2.036298994307912e+00 2.999999999999999e-01 0.000000000000000e+00
-2.007235409192664e+00 3.000000000000000e-01 0.000000000000000e+00
-1.968646560165798e+00 3.000000000000000e-01 0.000000000000000e+00
-1.842704358002437e+00 3.000000000000000e-01 0.000000000000000e+00
-1.646501764967743e+00 3.000000000000000e-01 0.000000000000000e+00
-1.424926806462258e+00 3.000000000000000e-01 0.000000000000000e+00
-1.228724213427564e+00 3.000000000000000e-01 0.000000000000000e+00
-1.102782011264203e+00 3.000000000000000e-01 0.000000000000000e+00
-1.069016768365779e+00 3.000000000000000e-01 0.000000000000000e+00
-1.059328906660696e+00 3.000000000000000e-01 0.000000000000000e+00
-1.044236399503856e+00 3.000000000000000e-01 0.000000000000000e+00
-1.027192171926144e+00 3.000000000000000e-01 0.000000000000000e+00
-1.012099664769304e+00 3.000000000000000e-01 0.000000000000000e+00
-1.002411803064221e+00 3.000000000000000e-01 0.000000000000000e+00
-9.662347571015765e-01 3.000000000000000e-01 0.000000000000000e+00
-8.306046932331324e-01 3.000000000000000e-01 0.000000000000000e+00
-6.193095930415985e-01 3.000000000000000e-01 0.000000000000000e+00
-3.806904069584015e-01 3.000000000000000e-01 0.000000000000000e+00
-1.693953067668677e-01 3.000000000000000e-01 0.000000000000000e+00
-3.376524289842391e-02 3.000000000000000e-01 0.000000000000000e+00
2.411803064173351e-03 3.000000000000000e-01 0.000000000000000e+00
1.209966476906614e-02 3.000000000000000e-01 0.000000000000000e+00
2.719217192561044e-02 3.000000000000000e-01 0.000000000000000e+00
4.423639950298875e-02 3.000000000000000e-01 0.000000000000000e+00
5.932890665953305e-02 3.000000000000000e-01 0.000000000000000e+00
6.901676836442583e-02 3.000000000000000e-01 0.000000000000000e+00
1.027820112628499e-01 3.000000000000000e-01 0.000000000000000e+00
2.287242134264009e-01 2.999999999999999e-01 0.000000000000000e+00
4.249268064613906e-01 3.000000000000000e-01 0.000000000000000e+00
6.465017649672098e-01 3.000000000000000e-01 0.000000000000000e+00
8.427043580021993e-01 3.000000000000000e-01 0.000000000000000e+00
9.686465601657502e-01 2.999999999999999e-01 0.000000000000000e+00
1.007235409192664e+00 2.999999999999999e-01 0.000000000000000e+00
1.036298994307912e+00 3.000000000000000e-01 0.000000000000000e+00
1.081576515778432e+00 3.000000000000000e-01 0.000000000000000e+00
1.132709198511568e+00 3.000000000000000e-01 0.000000000000000e+00
1.177986719982088e+00 3.000000000000000e-01 0.000000000000000e+00
1.207050305097336e+00 3.000000000000000e-01 0.000000000000000e+00
1.240815547995760e+00 3.000000000000000e-01 0.000000000000000e+00
1.347382026748956e+00 2.999999999999999e-01 0.000000000000000e+00
1.513399605469970e+00 3.000000000000000e-01 0.000000000000000e+00
1.700886108820030e+00 2.999999999999999e-01 0.000000000000000e+00
1.866903687541044e+00 2.999999999999999e-01 0.000000000000000e+00
1.973470166294240e+00 3.000000000000000e-01 0.000000000000000e+00
2.012059015320770e+00 2.999999999999999e-01 0.000000000000000e+00
2.060498323844827e+00 3.000000000000000e-01 0.000000000000000e+00
2.135960859626914e+00 3.000000000000000e-01 0.000000000000000e+00
2.221181997513087e+00 3.000000000000000e-01 0.000000000000000e+00
2.296644533295174e+00 3.000000000000000e-01 0.000000000000000e+00
2.345083841819231e+00 2.999999999999999e-01 0.000000000000000e+00
2.378849084717655e+00 3.000000000000000e-01 0.000000000000000e+00
2.466039840062042e+00 2.999999999999999e-01 0.000000000000000e+00
2.601872404471488e+00 3.000000000000000e-01 0.000000000000000e+00
2.755270452668511e+00 3.000000000000000e-01 0.000000000000000e+00
2.891103017077958e+00 3.000000000000000e-01 0.000000000000000e+00
2.978293772422345e+00 3.000000000000000e-01 0.000000000000000e+00
3.016882621449215e+00 2.999999999999999e-01 0.000000000000000e+00
3.084697653383437e+00 3.000000000000000e-01 0.000000000000000e+00
3.190345203479203e+00 3.000000000000000e-01 0.000000000000000e+00
3.309654796520801e+00 3.000000000000000e-01 0.000000000000000e+00
3.415302346616567e+00 3.000000000000000e-01 0.000000000000000e+00
3.483117378550788e+00 3.000000000000000e-01 0.000000000000000e+00
        </DataArray>
      </Points>

      <Cells>
        <DataArray type="Int32" Name="connectivity" format="ascii">
0 1 2 3 4 5 6 7 8 9 10 11 12 13 14 15 16 17 18 19 20 21 22 23 24 25 26 27 28 29 30 31 32 33 34 35 36 37 38 39 40 41 42 43 44 45 46 47 48 49 50 51 52 53 54 55 56 57 58 59 60 61 62 63 64 65 66 67 68 69 70 71 72 73 74 75 76 77 78 79 80 81 82 83 84 85 86 87 88 89 
        </DataArray>
        <DataArray type="Int32" Name="offsets" format="ascii">

        </DataArray>
        <DataArray type="UInt8" Name="types" format="ascii">

        </DataArray>
      </Cells>

  <PointData>
        <DataArray type="Float64" Name="displacement" NumberOfComponents="3" format="ascii">
-1.058079293387415e-03 -7.632172972088513e-05 1.528410152499195e-02
-1.237202048639752e-03 -9.499143695040901e-05 2.013724417745885e-02
-1.547782967755928e-03 -1.295025743924816e-04 2.816144011838928e-02
-1.956967860998304e-03 -1.775621458451337e-04 3.795926279027961e-02
-2.383308219350511e-03 -2.293023146918149e-04 4.734382471232567e-02
-2.694033431725806e-03 -2.675590455076260e-04 5.374351516148913e-02
-2.885139555437455e-03 -2.912153695284747e-04 5.752260858324649e-02
-3.358431411306206e-03 -3.500142590777688e-04 6.644397374782367e-02
-4.222742976191629e-03 -4.575368568652816e-04 8.145665864293357e-02
-5.410860853862776e-03 -6.047018538777316e-04 1.001638330008808e-01
-6.676746190473093e-03 -7.602258905585191e-04 1.184023429978319e-01
-7.606571832464049e-03 -8.735957709947173e-04 1.309910247323879e-01
-7.992480881350073e-03 -9.204536571457145e-04 1.360553967272489e-01
-8.562700912329912e-03 -9.897388659425022e-04 1.434348840525536e-01
-9.486392411093281e-03 -1.102104218987321e-03 1.551643817764518e-01
-1.058345551521134e-02 -1.235529684376735e-03 1.687559772178681e-01
-1.160478032209600e-02 -1.359503418416841e-03 1.811007438701333e-01
-1.228599590843071e-02 -1.441985749385977e-03 1.891797067915283e-01
-1.284342973990382e-02 -1.509328142068389e-03 1.957031423393454e-01
-1.445299827620961e-02 -1.702870719743288e-03 2.141246507306055e-01
-1.717629437524604e-02 -2.026755986084816e-03 2.440309267444791e-01
-2.059055483698469e-02 -2.425766492858028e-03 2.796139697186281e-01
-2.393661335684261e-02 -2.809001055922022e-03 3.127650534594749e-01
-2.625417655278994e-02 -3.070015567881945e-03 3.348754590376076e-01
-2.701714007097333e-02 -3.155183481692914e-03 3.420179273565755e-01
-2.768238411043455e-02 -3.229308219290905e-03 3.482056100738126e-01
-2.873200054716429e-02 -3.346158300836954e-03 3.579061534735072e-01
-2.993685723652684e-02 -3.480123071362473e-03 3.689501746370763e-01
-3.102112504339116e-02 -3.600515576684837e-03 3.788082458684762e-01
-3.172576289369244e-02 -3.678667559717019e-03 3.851750159228152e-01
-3.267183682705155e-02 -3.783483688958311e-03 3.936753401676715e-01
-3.584354824456026e-02 -4.133868735291424e-03 4.217892568248026e-01
-4.104483304766537e-02 -4.704792718246309e-03 4.667150369173502e-01
-4.730829105547896e-02 -5.385724915556889e-03 5.190903895223531e-01
-5.320803183147516e-02 -6.020185265186551e-03 5.669086631213522e-01
-5.717379099860365e-02 -6.442802364698519e-03 5.983109444696474e-01
-5.826108858453760e-02 -6.558127091941701e-03 6.068235275155203e-01
-5.857475492059705e-02 -6.591365975866903e-03 6.092724864993098e-01
-5.906457558374423e-02 -6.643268707344385e-03 6.130921189910105e-01
-5.961944409391684e-02 -6.702059474015754e-03 6.174121986699669e-01
-6.011228220057041e-02 -6.754273599794525e-03 6.212433293494023e-01
-6.042937895217393e-02 -6.787866495931716e-03 6.237053601808812e-01
-6.161863453686511e-02 -6.913839233681884e-03 6.329187330746390e-01
-6.614871780863840e-02 -7.393439020772163e-03 6.677306154613735e-01
-7.342702040560223e-02 -8.162996383379528e-03 7.227908709595051e-01
-8.196145133197980e-02 -9.063471595211148e-03 7.861321724421899e-01
-8.978874059309111e-02 -9.887234851441329e-03 8.431969534652334e-01
-9.494294570239881e-02 -1.042845923552538e-02 8.802877038749924e-01
-9.633456890853583e-02 -1.057441336531501e-02 8.902399855421175e-01
-9.670842371142446e-02 -1.061361044292164e-02 8.929092581336636e-01
-9.729184373173333e-02 -1.067476845367310e-02 8.970711322898601e-01
-9.795217111655299e-02 -1.074397202800259e-02 9.017762759782709e-01
-9.853817559809147e-02 -1.080537176581636e-02 9.059471062888240e-01
-9.891496857561535e-02 -1.084484365362925e-02 9.086265607880184e-01
-1.002313251793979e-01 -1.098275856034636e-02 9.179760459021430e-01
-1.051781754360174e-01 -1.150167050000267e-02 9.529760841919928e-01
-1.129967111441663e-01 -1.232368485253255e-02 1.007885520135770e+00
-1.219812535997137e-01 -1.327077156584427e-02 1.070423045021823e+00
-1.300651612406466e-01 -1.412486535838908e-02 1.126231903110830e+00
-1.353137026477728e-01 -1.468024718038818e-02 1.162254459867266e+00
-1.369307617781597e-01 -1.485148120072760e-02 1.173321374791078e+00
-1.381513541970837e-01 -1.498076864708064e-02 1.181665427362973e+00
-1.400574215718702e-01 -1.518272309793262e-02 1.194679406597038e+00
-1.422165046114289e-01 -1.541157082629036e-02 1.209397806790643e+00
-1.441340228769301e-01 -1.561488718564608e-02 1.222449420074248e+00
-1.453676333733802e-01 -1.574572293343046e-02 1.230836257350557e+00
-1.468030527105120e-01 -1.589802809186969e-02 1.240587157587425e+00
-1.513431033559769e-01 -1.638064523346117e-02 1.271393270916049e+00
-1.584442226748435e-01 -1.713808892249025e-02 1.319476202151991e+00
-1.665031784358304e-01 -1.800114133530795e-02 1.373903517805650e+00
-1.736724525004736e-01 -1.877162625197337e-02 1.422203870855970e+00
-1.782899856568059e-01 -1.926906946401014e-02 1.453257162688502e+00
-1.799649416280533e-01 -1.944972250722959e-02 1.464511033975354e+00
-1.820695898508879e-01 -1.967687041043747e-02 1.478644356531902e+00
-1.853530090401057e-01 -2.003155620776181e-02 1.500676907094781e+00
-1.890676418305257e-01 -2.043325664786605e-02 1.525579355517557e+00
-1.923625935934292e-01 -2.078992599432322e-02 1.547647974406856e+00
-1.944803527560190e-01 -2.101932891830000e-02 1.561822301657384e+00
-1.959575031617184e-01 -2.117942696623965e-02 1.571705559285818e+00
-1.997702611180108e-01 -2.159329239797614e-02 1.597220482693684e+00
-2.057058171815487e-01 -2.223926504339935e-02 1.636953067906328e+00
-2.124051294735478e-01 -2.297047705993316e-02 1.681807407312069e+00
-2.183363522728334e-01 -2.361938359462629e-02 1.721518926532456e+00
-2.221441839075511e-01 -2.403658445230616e-02 1.747009900823419e+00
-2.238297830009799e-01 -2.422138953353642e-02 1.758292335675579e+00
-2.267927044516131e-01 -2.454639272466169e-02 1.778121417262370e+00
-2.314108998298345e-01 -2.505327669878110e-02 1.809018675144395e+00
-2.366308510122206e-01 -2.562650281053314e-02 1.843923931722500e+00
-2.412582318955363e-01 -2.613475229431600e-02 1.874846956201659e+00
-2.442315959938552e-01 -2.646130788089268e-02 1.894705330842362e+00
        </DataArray>
        <DataArray type="Float64" Name="force" NumberOfComponents="3" format="ascii">
0.000000000000000e+00 0.000000000000000e+00 0.000000000000000e+00
0.000000000000000e+00 0.000000000000000e+00 0.000000000000000e+00
0.000000000000000e+00 0.000000000000000e+00 0.000000000000000e+00
0.000000000000000e+00 0.000000000000000e+00 0.000000000000000e+00
0.000000000000000e+00 0.000000000000000e+00 0.000000000000000e+00
0.000000000000000e+00 0.000000000000000e+00 0.000000000000000e+00
0.000000000000000e+00 0.000000000000000e+00 0.000000000000000e+00
0.000000000000000e+00 0.000000000000000e+00 0.000000000000000e+00
0.000000000000000e+00 0.000000000000000e+00 0.000000000000000e+00
0.000000000000000e+00 0.000000000000000e+00 0.000000000000000e+00
0.000000000000000e+00 0.000000000000000e+00 0.000000000000000e+00
0.000000000000000e+00 0.000000000000000e+00 0.000000000000000e+00
0.000000000000000e+00 0.000000000000000e+00 0.000000000000000e+00
0.000000000000000e+00 0.000000000000000e+00 0.000000000000000e+00
0.000000000000000e+00 0.000000000000000e+00 0.000000000000000e+00
0.000000000000000e+00 0.000000000000000e+00 0.000000000000000e+00
0.000000000000000e+00 0.000000000000000e+00 0.000000000000000e+00
0.000000000000000e+00 0.000000000000000e+00 0.000000000000000e+00
0.000000000000000e+00 0.000000000000000e+00 0.000000000000000e+00
0.000000000000000e+00 0.000000000000000e+00 0.000000000000000e+00
0.000000000000000e+00 0.000000000000000e+00 0.000000000000000e+00
0.000000000000000e+00 0.000000000000000e+00 0.000000000000000e+00
0.000000000000000e+00 0.000000000000000e+00 0.000000000000000e+00
0.000000000000000e+00 0.000000000000000e+00 0.000000000000000e+00
0.000000000000000e+00 0.000000000000000e+00 0.000000000000000e+00
0.000000000000000e+00 0.000000000000000e+00 0.000000000000000e+00
0.000000000000000e+00 0.000000000000000e+00 0.000000000000000e+00
0.000000000000000e+00 0.000000000000000e+00 0.000000000000000e+00
0.000000000000000e+00 0.000000000000000e+00 0.000000000000000e+00
0.000000000000000e+00 0.000000000000000e+00 0.000000000000000e+00
0.000000000000000e+00 0.000000000000000e+00 0.000000000000000e+00
0.000000000000000e+00 0.000000000000000e+00 0.000000000000000e+00
0.000000000000000e+00 0.000000000000000e+00 0.000000000000000e+00
0.000000000000000e+00 0.000000000000000e+00 0.000000000000000e+00
0.000000000000000e+00 0.000000000000000e+00 0.000000000000000e+00
0.000000000000000e+00 0.000000000000000e+00 0.000000000000000e+00
0.000000000000000e+00 0.000000000000000e+00 0.000000000000000e+00
0.000000000000000e+00 0.000000000000000e+00 0.000000000000000e+00
0.000000000000000e+00 0.000000000000000e+00 0.000000000000000e+00
0.000000000000000e+00 0.000000000000000e+00 0.000000000000000e+00
0.000000000000000e+00 0.000000000000000e+00 0.000000000000000e+00
0.000000000000000e+00 0.000000000000000e+00 0.000000000000000e+00
0.000000000000000e+00 0.000000000000000e+00 0.000000000000000e+00
0.000000000000000e+00 0.000000000000000e+00 0.000000000000000e+00
0.000000000000000e+00 0.000000000000000e+00 0.000000000000000e+00
0.000000000000000e+00 0.000000000000000e+00 0.000000000000000e+00
0.000000000000000e+00 0.000000000000000e+00 0.000000000000000e+00
0.000000000000000e+00 0.000000000000000e+00 0.000000000000000e+00
0.000000000000000e+00 0.000000000000000e+00 0.000000000000000e+00
0.000000000000000e+00 0.000000000000000e+00 0.000000000000000e+00
0.000000000000000e+00 0.000000000000000e+00 0.000000000000000e+00
0.000000000000000e+00 0.000000000000000e+00 0.000000000000000e+00
0.000000000000000e+00 0.000000000000000e+00 0.000000000000000e+00
0.000000000000000e+00 0.000000000000000e+00 0.000000000000000e+00
0.000000000000000e+00 0.000000000000000e+00 0.000000000000000e+00
0.000000000000000e+00 0.000000000000000e+00 0.000000000000000e+00
0.000000000000000e+00 0.000000000000000e+00 0.000000000000000e+00
0.000000000000000e+00 0.000000000000000e+00 0.000000000000000e+00
0.000000000000000e+00 0.000000000000000e+00 0.000000000000000e+00
0.000000000000000e+00 0.000000000000000e+00 0.000000000000000e+00
0.000000000000000e+00 0.000000000000000e+00 0.000000000000000e+00
0.000000000000000e+00 0.000000000000000e+00 0.000000000000000e+00
0.000000000000000e+00 0.000000000000000e+00 0.000000000000000e+00
0.000000000000000e+00 0.000000000000000e+00 0.000000000000000e+00
0.000000000000000e+00 0.000000000000000e+00 0.000000000000000e+00
0.000000000000000e+00 0.000000000000000e+00 0.000000000000000e+00
0.000000000000000e+00 0.000000000000000e+00 0.000000000000000e+00
0.000000000000000e+00 0.000000000000000e+00 0.000000000000000e+00
0.000000000000000e+00 0.000000000000000e+00 0.000000000000000e+00
0.000000000000000e+00 0.000000000000000e+00 0.000000000000000e+00
0.000000000000000e+00 0.000000000000000e+00 0.000000000000000e+00
0.000000000000000e+00 0.000000000000000e+00 0.000000000000000e+00
0.000000000000000e+00 0.000000000000000e+00 0.000000000000000e+00
0.000000000000000e+00 0.000000000000000e+00 0.000000000000000e+00
0.000000000000000e+00 0.000000000000000e+00 0.000000000000000e+00
0.000000000000000e+00 0.000000000000000e+00 0.000000000000000e+00
0.000000000000000e+00 0.000000000000000e+00 0.000000000000000e+00
0.000000000000000e+00 0.000000000000000e+00 0.000000000000000e+00
0.000000000000000e+00 0.000000000000000e+00 0.000000000000000e+00
0.000000000000000e+00 0.000000000000000e+00 0.000000000000000e+00
0.000000000000000e+00 0.000000000000000e+00 0.000000000000000e+00
0.000000000000000e+00 0.000000000000000e+00 0.000000000000000e+00
0.000000000000000e+00 0.000000000000000e+00 0.000000000000000e+00
0.000000000000000e+00 0.000000000000000e+00 0.000000000000000e+00
0.000000000000000e+00 0.000000000000000e+00 0.000000000000000e+00
0.000000000000000e+00 0.000000000000000e+00 0.000000000000000e+00
0.000000000000000e+00 0.000000000000000e+00 0.000000000000000e+00
0.000000000000000e+00 0.000000000000000e+00 0.000000000000000e+00
0.000000000000000e+00 0.000000000000000e+00 0.000000000000000e+00
0.000000000000000e+00 0.000000000000000e+00 0.000000000000000e+00
        </DataArray>
      </PointData>

    </Piece>
  </UnstructuredGrid>
</VTKFile>
