<?xml version="1.0" ?> 
<!-- 
# vtk DataFile Version 3.0
-->
<VTKFile type="UnstructuredGrid" version="0.1" compressor="vtkZLibDataCompressor" byte_order="LittleEndian">
  <UnstructuredGrid>
    <FieldData>
      <DataArray type="Float64" Name="TIME" NumberOfTuples="1" format="ascii">
1.000000000000000e-08 
      </DataArray>
    </FieldData>

    <Piece NumberOfPoints="30" NumberOfCells="0" >
      <Points>
        <DataArray type="Float64" NumberOfComponents="3" format="ascii">
-4.500000000000000e+00 3.000000000000000e-01 0.000000000000000e+00
-4.000000000000000e+00 3.000000000000000e-01 0.000000000000000e+00
-4.000000000000000e+00 3.000000000000000e-01 0.000000000000000e+00
-3.357142857140000e+00 3.000000000000000e-01 0.000000000000000e+00
-3.357142857140000e+00 3.000000000000000e-01 0.000000000000000e+00
-3.000000000000000e+00 3.000000000000000e-01 0.000000000000000e+00
-3.000000000000000e+00 3.000000000000000e-01 0.000000000000000e+00
-2.214285714290000e+00 3.000000000000000e-01 0.000000000000000e+00
-2.214285714290000e+00 3.000000000000000e-01 0.000000000000000e+00
-2.000000000000000e+00 3.000000000000000e-01 0.000000000000000e+00
-2.000000000000000e+00 3.000000000000000e-01 0.000000000000000e+00
-1.071428571430000e+00 3.000000000000000e-01 0.000000000000000e+00
-1.071428571430000e+00 3.000000000000000e-01 0.000000000000000e+00
-1.000000000000000e+00 3.000000000000000e-01 0.000000000000000e+00
-1.000000000000000e+00 3.000000000000000e-01 0.000000000000000e+00
4.163336342344337e-17 3.000000000000000e-01 0.000000000000000e+00
-5.551115123125783e-17 3.000000000000000e-01 0.000000000000000e+00
7.142857142860000e-02 3.000000000000000e-01 0.000000000000000e+00
7.142857142860000e-02 3.000000000000000e-01 0.000000000000000e+00
1.000000000000000e+00 3.000000000000000e-01 0.000000000000000e+00
1.000000000000000e+00 3.000000000000000e-01 0.000000000000000e+00
1.214285714290000e+00 3.000000000000000e-01 0.000000000000000e+00
1.214285714290000e+00 3.000000000000000e-01 0.000000000000000e+00
1.999999999999999e+00 3.000000000000000e-01 0.000000000000000e+00
2.000000000000000e+00 3.000000000000000e-01 0.000000000000000e+00
2.357142857140000e+00 3.000000000000000e-01 0.000000000000000e+00
2.357142857140000e+00 3.000000000000000e-01 0.000000000000000e+00
3.000000000000000e+00 3.000000000000000e-01 0.000000000000000e+00
3.000000000000000e+00 3.000000000000000e-01 0.000000000000000e+00
3.500000000000000e+00 3.000000000000000e-01 0.000000000000000e+00
        </DataArray>
      </Points>

      <Cells>
        <DataArray type="Int32" Name="connectivity" format="ascii">
0 1 2 3 4 5 6 7 8 9 10 11 12 13 14 15 16 17 18 19 20 21 22 23 24 25 26 27 28 29 
        </DataArray>
        <DataArray type="Int32" Name="offsets" format="ascii">

        </DataArray>
        <DataArray type="UInt8" Name="types" format="ascii">

        </DataArray>
      </Cells>

  <PointData>
        <DataArray type="Float64" Name="displacement" NumberOfComponents="3" format="ascii">
-1.923493182731661e-04 1.187246502808992e-03 7.164562481010784e-03
-6.492014726511286e-04 -7.777137168746284e-04 2.814754933335131e-02
-6.492014726511286e-04 -7.777137168746284e-04 2.814754933335131e-02
-1.972135921504137e-03 -4.412754134717756e-04 6.834324408630751e-02
-1.972135921504137e-03 -4.412754134717756e-04 6.834324408630751e-02
-3.172222612082276e-03 -1.092864083587108e-03 9.745909640190151e-02
-3.172222612082720e-03 -1.092864083587108e-03 9.745909640190151e-02
-6.924299515328691e-03 -1.230998619191515e-03 1.739408137739435e-01
-6.924299515328691e-03 -1.230998619191515e-03 1.739408137739435e-01
-8.241965151623010e-03 -1.604949666105138e-03 1.977080170030612e-01
-8.241965151623010e-03 -1.604949666105082e-03 1.977080170030612e-01
-1.510211568873832e-02 -2.090770479196091e-03 3.106209088435005e-01
-1.510211568873832e-02 -2.090770479196091e-03 3.106209088435005e-01
-1.570951732640902e-02 -2.206458865798566e-03 3.199519223181785e-01
-1.570951732640902e-02 -2.206458865798566e-03 3.199519223181785e-01
-2.504408234057542e-02 -2.918631131585303e-03 4.568260819096447e-01
-2.504408234057544e-02 -2.918631131585303e-03 4.568260819096447e-01
-2.576719204079854e-02 -3.003962612139810e-03 4.670123576262628e-01
-2.576719204079854e-02 -3.003962612139810e-03 4.670123576262628e-01
-3.559616728837378e-02 -3.718377772861825e-03 6.024130620108339e-01
-3.559616728837389e-02 -3.718377772861825e-03 6.024130620108340e-01
-3.796032290032381e-02 -3.904241897287941e-03 6.343149961871722e-01
-3.796032290032381e-02 -3.904241897287941e-03 6.343149961871722e-01
-4.678174995908346e-02 -4.482707590146073e-03 7.522963583644184e-01
-4.678174995908413e-02 -4.482707590146129e-03 7.522963583644184e-01
-5.084817692870791e-02 -4.735846252188203e-03 8.062941487136158e-01
-5.084817692870791e-02 -4.735846252188203e-03 8.062941487136158e-01
-5.818359985811661e-02 -5.159505748594029e-03 9.035613999568599e-01
-5.818359985811661e-02 -5.159505748594029e-03 9.035613999568599e-01
-6.391693018459232e-02 -5.466461945591305e-03 9.792594760447196e-01
        </DataArray>
        <DataArray type="Float64" Name="uid_0_pair_beam_id" format="ascii">
1.000000000000000e+01
1.000000000000000e+01
1.000000000000000e+01
1.000000000000000e+01
1.100000000000000e+01
1.100000000000000e+01
1.100000000000000e+01
1.100000000000000e+01
1.200000000000000e+01
1.200000000000000e+01
1.200000000000000e+01
1.200000000000000e+01
1.300000000000000e+01
1.300000000000000e+01
1.300000000000000e+01
1.300000000000000e+01
1.300000000000000e+01
1.300000000000000e+01
1.400000000000000e+01
1.400000000000000e+01
1.400000000000000e+01
1.400000000000000e+01
1.500000000000000e+01
1.500000000000000e+01
1.500000000000000e+01
1.500000000000000e+01
1.600000000000000e+01
1.600000000000000e+01
1.600000000000000e+01
1.600000000000000e+01
        </DataArray>
        <DataArray type="Float64" Name="uid_1_pair_solid_id" format="ascii">
0.000000000000000e+00
0.000000000000000e+00
1.000000000000000e+00
1.000000000000000e+00
1.000000000000000e+00
1.000000000000000e+00
2.000000000000000e+00
2.000000000000000e+00
2.000000000000000e+00
2.000000000000000e+00
3.000000000000000e+00
3.000000000000000e+00
3.000000000000000e+00
3.000000000000000e+00
4.000000000000000e+00
4.000000000000000e+00
5.000000000000000e+00
5.000000000000000e+00
5.000000000000000e+00
5.000000000000000e+00
6.000000000000000e+00
6.000000000000000e+00
6.000000000000000e+00
6.000000000000000e+00
7.000000000000000e+00
7.000000000000000e+00
7.000000000000000e+00
7.000000000000000e+00
8.000000000000000e+00
8.000000000000000e+00
        </DataArray>
      </PointData>

    </Piece>
  </UnstructuredGrid>
</VTKFile>
