<?xml version="1.0" ?> 
<!-- 
# vtk DataFile Version 3.0
-->
<VTKFile type="UnstructuredGrid" version="0.1" compressor="vtkZLibDataCompressor" byte_order="LittleEndian">
  <UnstructuredGrid>
    <FieldData>
      <DataArray type="Float64" Name="TIME" NumberOfTuples="1" format="ascii">
1
      </DataArray>
    </FieldData>

    <Piece NumberOfPoints="90" NumberOfCells="15" >
      <Points>
        <DataArray type="Float64" NumberOfComponents="3" format="ascii">
-4.500000000000000e+00 3.000000000000000e-01 0.000000000000000e+00
-4.399999999999999e+00 3.000000000000000e-01 0.000000000000000e+00
-4.300000000000000e+00 3.000000000000000e-01 0.000000000000000e+00
-4.200000000000000e+00 3.000000000000000e-01 0.000000000000000e+00
-4.100000000000001e+00 3.000000000000000e-01 0.000000000000000e+00
-4.000000000000000e+00 3.000000000000000e-01 0.000000000000000e+00
-4.000000000000001e+00 3.000000000000000e-01 0.000000000000000e+00
-3.871428571428001e+00 3.000000000000000e-01 0.000000000000000e+00
-3.742857142856000e+00 3.000000000000000e-01 0.000000000000000e+00
-3.614285714284000e+00 3.000000000000000e-01 0.000000000000000e+00
-3.485714285712000e+00 3.000000000000000e-01 0.000000000000000e+00
-3.357142857140000e+00 3.000000000000000e-01 0.000000000000000e+00
-3.357142857140000e+00 3.000000000000000e-01 0.000000000000000e+00
-3.285714285712000e+00 3.000000000000000e-01 0.000000000000000e+00
-3.214285714284001e+00 3.000000000000000e-01 0.000000000000000e+00
-3.142857142856000e+00 3.000000000000000e-01 0.000000000000000e+00
-3.071428571428000e+00 2.999999999999999e-01 0.000000000000000e+00
-3.000000000000000e+00 3.000000000000000e-01 0.000000000000000e+00
-3.000000000000000e+00 3.000000000000000e-01 0.000000000000000e+00
-2.842857142858000e+00 3.000000000000000e-01 0.000000000000000e+00
-2.685714285716000e+00 3.000000000000000e-01 0.000000000000000e+00
-2.528571428574000e+00 3.000000000000000e-01 0.000000000000000e+00
-2.371428571432000e+00 2.999999999999999e-01 0.000000000000000e+00
-2.214285714290000e+00 3.000000000000000e-01 0.000000000000000e+00
-2.214285714290000e+00 3.000000000000000e-01 0.000000000000000e+00
-2.171428571432000e+00 2.999999999999999e-01 0.000000000000000e+00
-2.128571428574000e+00 3.000000000000000e-01 0.000000000000000e+00
-2.085714285716000e+00 3.000000000000000e-01 0.000000000000000e+00
-2.042857142858000e+00 3.000000000000000e-01 0.000000000000000e+00
-2.000000000000000e+00 3.000000000000000e-01 0.000000000000000e+00
-2.000000000000001e+00 3.000000000000000e-01 0.000000000000000e+00
-1.814285714286000e+00 2.999999999999999e-01 0.000000000000000e+00
-1.628571428572001e+00 3.000000000000000e-01 0.000000000000000e+00
-1.442857142858000e+00 3.000000000000000e-01 0.000000000000000e+00
-1.257142857144000e+00 3.000000000000000e-01 0.000000000000000e+00
-1.071428571430000e+00 3.000000000000000e-01 0.000000000000000e+00
-1.071428571430000e+00 3.000000000000000e-01 0.000000000000000e+00
-1.057142857144000e+00 2.999999999999999e-01 0.000000000000000e+00
-1.042857142858000e+00 3.000000000000000e-01 0.000000000000000e+00
-1.028571428572000e+00 3.000000000000000e-01 0.000000000000000e+00
-1.014285714286000e+00 3.000000000000000e-01 0.000000000000000e+00
-1.000000000000000e+00 3.000000000000000e-01 0.000000000000000e+00
-1.000000000000000e+00 2.999999999999999e-01 0.000000000000000e+00
-8.000000000000002e-01 3.000000000000000e-01 0.000000000000000e+00
-6.000000000000001e-01 3.000000000000000e-01 0.000000000000000e+00
-4.000000000000000e-01 3.000000000000000e-01 0.000000000000000e+00
-1.999999999999999e-01 3.000000000000000e-01 0.000000000000000e+00
1.665334536937735e-16 3.000000000000000e-01 0.000000000000000e+00
-8.604228440844963e-16 3.000000000000000e-01 0.000000000000000e+00
1.428571428571924e-02 3.000000000000000e-01 0.000000000000000e+00
2.857142857143954e-02 2.999999999999999e-01 0.000000000000000e+00
4.285714285715960e-02 2.999999999999999e-01 0.000000000000000e+00
5.714285714287977e-02 3.000000000000000e-01 0.000000000000000e+00
7.142857142860000e-02 3.000000000000000e-01 0.000000000000000e+00
7.142857142860000e-02 3.000000000000000e-01 0.000000000000000e+00
2.571428571428799e-01 2.999999999999999e-01 0.000000000000000e+00
4.428571428571601e-01 3.000000000000000e-01 0.000000000000000e+00
6.285714285714402e-01 3.000000000000000e-01 0.000000000000000e+00
8.142857142857203e-01 3.000000000000000e-01 0.000000000000000e+00
1.000000000000000e+00 2.999999999999999e-01 0.000000000000000e+00
9.999999999999997e-01 3.000000000000000e-01 0.000000000000000e+00
1.042857142858000e+00 3.000000000000000e-01 0.000000000000000e+00
1.085714285716000e+00 3.000000000000000e-01 0.000000000000000e+00
1.128571428574000e+00 3.000000000000000e-01 0.000000000000000e+00
1.171428571432000e+00 3.000000000000000e-01 0.000000000000000e+00
1.214285714290000e+00 3.000000000000000e-01 0.000000000000000e+00
1.214285714290000e+00 3.000000000000000e-01 0.000000000000000e+00
1.371428571432000e+00 2.999999999999999e-01 0.000000000000000e+00
1.528571428574000e+00 3.000000000000000e-01 0.000000000000000e+00
1.685714285716000e+00 3.000000000000000e-01 0.000000000000000e+00
1.842857142858000e+00 3.000000000000000e-01 0.000000000000000e+00
2.000000000000000e+00 3.000000000000000e-01 0.000000000000000e+00
2.000000000000001e+00 3.000000000000000e-01 0.000000000000000e+00
2.071428571428001e+00 3.000000000000000e-01 0.000000000000000e+00
2.142857142856001e+00 3.000000000000000e-01 0.000000000000000e+00
2.214285714284001e+00 3.000000000000000e-01 0.000000000000000e+00
2.285714285712000e+00 2.999999999999999e-01 0.000000000000000e+00
2.357142857140000e+00 3.000000000000000e-01 0.000000000000000e+00
2.357142857140000e+00 3.000000000000000e-01 0.000000000000000e+00
2.485714285712000e+00 3.000000000000000e-01 0.000000000000000e+00
2.614285714284001e+00 3.000000000000000e-01 0.000000000000000e+00
2.742857142856000e+00 3.000000000000000e-01 0.000000000000000e+00
2.871428571428000e+00 3.000000000000000e-01 0.000000000000000e+00
3.000000000000000e+00 3.000000000000000e-01 0.000000000000000e+00
3.000000000000004e+00 3.000000000000000e-01 0.000000000000000e+00
3.100000000000003e+00 3.000000000000000e-01 0.000000000000000e+00
3.200000000000002e+00 3.000000000000000e-01 0.000000000000000e+00
3.300000000000002e+00 3.000000000000000e-01 0.000000000000000e+00
3.400000000000000e+00 3.000000000000000e-01 0.000000000000000e+00
3.500000000000000e+00 3.000000000000000e-01 0.000000000000000e+00
        </DataArray>
      </Points>

      <Cells>
        <DataArray type="Int32" Name="connectivity" format="ascii">
0 1 2 3 4 5 6 7 8 9 10 11 12 13 14 15 16 17 18 19 20 21 22 23 24 25 26 27 28 29 30 31 32 33 34 35 36 37 38 39 40 41 42 43 44 45 46 47 48 49 50 51 52 53 54 55 56 57 58 59 60 61 62 63 64 65 66 67 68 69 70 71 72 73 74 75 76 77 78 79 80 81 82 83 84 85 86 87 88 89 
        </DataArray>
        <DataArray type="Int32" Name="offsets" format="ascii">
6 12 18 24 30 36 42 48 54 60 66 72 78 84 90 
        </DataArray>
        <DataArray type="UInt8" Name="types" format="ascii">
4 4 4 4 4 4 4 4 4 4 4 4 4 4 4 
        </DataArray>
      </Cells>

  <PointData>
        <DataArray type="Float64" Name="displacement" NumberOfComponents="3" format="ascii">
-1.015521885539883e-03 -7.205781866659322e-05 1.411010515946848e-02
-1.279629735521759e-03 -9.956415861711587e-05 2.126368916226257e-02
-1.578399401338082e-03 -1.330155880842621e-04 2.892438597258728e-02
-1.921194773863988e-03 -1.732816427237882e-04 3.713571767856929e-02
-2.317379743977277e-03 -2.212318581915063e-04 4.594120636833524e-02
-2.776318202556638e-03 -2.777357701432281e-04 5.538437413001177e-02
-2.776318202556638e-03 -2.777357701432281e-04 5.538437413001168e-02
-3.473660727874694e-03 -3.643517231484150e-04 6.853262902158359e-02
-4.310119377204824e-03 -4.683929359681205e-04 8.289945143499022e-02
-5.305595831155863e-03 -5.917074887571427e-04 9.857734166832123e-02
-6.479991770337978e-03 -7.361434616702245e-04 1.156588000196663e-01
-7.853208875361783e-03 -9.035489348621084e-04 1.342363267871151e-01
-7.853208875361783e-03 -9.035489348621084e-04 1.342363267871151e-01
-8.693792832672464e-03 -1.005679579434759e-03 1.451161792574644e-01
-9.573008988200016e-03 -1.112643051421225e-03 1.562505653977557e-01
-1.049248973644623e-02 -1.224473741636423e-03 1.676423856484480e-01
-1.145386747191157e-02 -1.341206040895382e-03 1.792945404500002e-01
-1.245877458909517e-02 -1.462874340013298e-03 1.912099302428712e-01
-1.245877458909606e-02 -1.462874340013354e-03 1.912099302428712e-01
-1.483083811065766e-02 -1.748088795512748e-03 2.183646683272825e-01
-1.743886636576564e-02 -2.057726135271554e-03 2.468383857915122e-01
-2.030024109106110e-02 -2.392152552687765e-03 2.766619665255677e-01
-2.343234402318561e-02 -2.751734241159709e-03 3.078662944194561e-01
-2.685255689878163e-02 -3.136837394085323e-03 3.404822533631848e-01
-2.685255689878163e-02 -3.136837394085323e-03 3.404822533631848e-01
-2.783341317774424e-02 -3.246129712666912e-03 3.496060781554987e-01
-2.882872913247114e-02 -3.356920081639625e-03 3.587963505149983e-01
-2.983858506123749e-02 -3.469203488722983e-03 3.680529603151098e-01
-3.086306126231753e-02 -3.582974921636395e-03 3.773757974292602e-01
-3.190223803398951e-02 -3.698229368099826e-03 3.867647517308762e-01
-3.190223803398995e-02 -3.698229368099770e-03 3.867647517308760e-01
-3.657716951935908e-02 -4.214680073337473e-03 4.282115546586881e-01
-4.153618677611370e-02 -4.758476506853182e-03 4.708888624675904e-01
-4.678582370470408e-02 -5.329210817534069e-03 5.147877141175271e-01
-5.233261420558022e-02 -5.926475154267086e-03 5.598991485684428e-01
-5.818309217919282e-02 -6.549861665939238e-03 6.062142047802813e-01
-5.818309217919282e-02 -6.549861665939238e-03 6.062142047802813e-01
-5.864561422030135e-02 -6.598874651353226e-03 6.098253992602540e-01
-5.910940954314570e-02 -6.648019247217030e-03 6.134414531803020e-01
-5.957447571860186e-02 -6.697295062682296e-03 6.170623522790701e-01
-6.004081031754560e-02 -6.746701706900726e-03 6.206880822952050e-01
-6.050841091085446e-02 -6.796238789024411e-03 6.243186289673521e-01
-6.050841091085446e-02 -6.796238789024356e-03 6.243186289673520e-01
-6.718638831600765e-02 -7.503235043782253e-03 6.756440448992970e-01
-7.410535899278381e-02 -8.234648034228687e-03 7.278715970282089e-01
-8.125865742564614e-02 -8.989405272904483e-03 7.809621521981240e-01
-8.863961809905724e-02 -9.766434272350577e-03 8.348765772530775e-01
-9.624157549747983e-02 -1.056466254510735e-02 8.895757390371057e-01
-9.624157549747978e-02 -1.056466254510735e-02 8.895757390371054e-01
-9.679285285037383e-02 -1.062246171049264e-02 8.935118162646636e-01
-9.734522130072307e-02 -1.068036317271259e-02 8.974516833307301e-01
-9.789867841940378e-02 -1.073836654091909e-02 9.013953259739512e-01
-9.845322177729222e-02 -1.079647142426410e-02 9.053427299329726e-01
-9.900884894526470e-02 -1.085467743189900e-02 9.092938809464397e-01
-9.900884894526470e-02 -1.085467743189900e-02 9.092938809464397e-01
-1.063023251661114e-01 -1.161972392014909e-02 9.609009145373300e-01
-1.137177888065281e-01 -1.239960284797126e-02 1.012925929668942e+00
-1.212483546022741e-01 -1.319342455036721e-02 1.065342569568929e+00
-1.288871372891091e-01 -1.400029936233838e-02 1.118124477464946e+00
-1.366272516027931e-01 -1.481933761888604e-02 1.171245296584647e+00
-1.366272516027931e-01 -1.481933761888610e-02 1.171245296584647e+00
-1.384270950453924e-01 -1.500997985307190e-02 1.183549293318755e+00
-1.402318835595850e-01 -1.520121153252674e-02 1.195869611053297e+00
-1.420415325290154e-01 -1.539302172372509e-02 1.208205925877098e+00
-1.438559573373268e-01 -1.558539949314186e-02 1.220557913878982e+00
-1.456750733681631e-01 -1.577833390725181e-02 1.232925251147773e+00
-1.456750733681631e-01 -1.577833390725181e-02 1.232925251147773e+00
-1.523695477344316e-01 -1.648994221956135e-02 1.278351012291549e+00
-1.590948406094510e-01 -1.720763505350575e-02 1.323875694670313e+00
-1.658495244601519e-01 -1.793101426598409e-02 1.369494339952130e+00
-1.726321717534633e-01 -1.865968171389520e-02 1.415201989805066e+00
-1.794413549563152e-01 -1.939323925413794e-02 1.460993685897184e+00
-1.794413549563143e-01 -1.939323925413799e-02 1.460993685897184e+00
-1.825448243222103e-01 -1.972818337206078e-02 1.481834535995911e+00
-1.856533473033539e-01 -2.006401818731701e-02 1.502691260912819e+00
-1.887667898339056e-01 -2.040070630855595e-02 1.523563394989390e+00
-1.918850178480240e-01 -2.073821034442719e-02 1.544450472567100e+00
-1.950078972798686e-01 -2.107649290358010e-02 1.565352027987430e+00
-1.950078972798686e-01 -2.107649290358010e-02 1.565352027987430e+00
-2.006302727028295e-01 -2.168676638197753e-02 1.602976617424023e+00
-2.062480531873834e-01 -2.229837042721455e-02 1.640583302773567e+00
-2.118630864985600e-01 -2.291124098223574e-02 1.678178110856630e+00
-2.174772204013871e-01 -2.352531398998570e-02 1.715767068493778e+00
-2.230923026608953e-01 -2.414052539340905e-02 1.753356202505575e+00
-2.230923026608957e-01 -2.414052539340900e-02 1.753356202505576e+00
-2.274614273566997e-01 -2.461976918472092e-02 1.782596175610763e+00
-2.318331129209241e-01 -2.509963274525157e-02 1.811842736930689e+00
-2.362082287409573e-01 -2.558008593567324e-02 1.841098722129898e+00
-2.405876442041839e-01 -2.606109861665801e-02 1.870366966872938e+00
-2.449722286979927e-01 -2.654264064887807e-02 1.899650306824355e+00
        </DataArray>
        <DataArray type="Float64" Name="lambda" NumberOfComponents="3" format="ascii">
-7.072698942909007e-04 1.492849709675747e-05 -9.922662896110629e-04
-5.330770250443621e-04 8.561482749934486e-06 -4.534986287465457e-04
-3.778209025741780e-04 3.313102058114667e-06 -1.033474141244714e-05
-2.415015268803488e-04 -8.166449787019864e-07 3.372253723912325e-04
-1.241188979628747e-04 -3.827758360515468e-06 5.891817126644929e-04
-2.567301582175531e-05 -5.720238087325784e-06 7.455342794073345e-04
-2.567301582175610e-05 -5.720238087325772e-06 7.455342794073336e-04
7.307483738255169e-05 -6.509719712403182e-06 8.060799939094744e-04
1.405190887726068e-04 -5.450031417969118e-06 7.085868174721703e-04
1.766597383484092e-04 -2.541173204023582e-06 4.530547500954220e-04
1.814967861099589e-04 2.216854929433427e-06 3.948379177922887e-05
1.550302320572560e-04 8.824052982401909e-06 -5.321260574764086e-04
1.550302320572560e-04 8.824052982401909e-06 -5.321260574764086e-04
1.317184770709155e-04 6.168923356208668e-06 -2.986544347292319e-04
1.115171423452623e-04 3.834484755897457e-06 -9.325149278578563e-05
9.442622788029628e-05 1.820737181468279e-06 8.408276835393004e-05
8.044573367601760e-05 1.276806329211302e-07 2.333483486899153e-04
6.957565973242617e-05 -1.244684889743987e-06 3.545452482221700e-04
6.957565973242614e-05 -1.244684889743989e-06 3.545452482221702e-04
5.661017637413036e-05 -3.135056628505334e-06 5.223766707642535e-04
5.869912707763758e-05 -3.473283801989749e-06 5.543556782155898e-04
7.584251184294780e-05 -2.259366410197237e-06 4.504822705761792e-04
1.080403306700610e-04 5.066955468722075e-07 2.107564478460215e-04
1.552925835589772e-04 4.824902069218578e-06 -1.648217899748830e-04
1.552925835589772e-04 4.824902069218580e-06 -1.648217899748832e-04
1.349487513489345e-04 3.894164723603713e-06 -8.733713121279377e-05
1.160422210654729e-04 3.030562967953778e-06 -1.536021725939974e-05
9.857299270859244e-05 2.234096802268774e-06 5.110895188529891e-05
8.254106627829316e-05 1.504766226548701e-06 1.120703762213022e-04
6.794644177457505e-05 8.425712407935590e-07 1.675240557486100e-04
6.794644177457531e-05 8.425712407935710e-07 1.675240557486090e-04
2.131189118855933e-05 -1.251151324519105e-06 3.441782825748835e-04
1.666676778293670e-06 -2.084216700544596e-06 4.174093013312216e-04
9.010798543778330e-06 -1.656624887282903e-06 3.872171120176232e-04
4.334425648501331e-05 3.162411526597423e-08 2.536017146340882e-04
1.046670506019985e-04 2.980530307102034e-06 1.656310918061689e-05
1.046670506019986e-04 2.980530307102038e-06 1.656310918061659e-05
9.908171308890865e-05 2.771413857041699e-06 3.189050427698166e-05
9.362085502996208e-05 2.567405316945479e-06 4.685453102226602e-05
8.828447642515899e-05 2.368504686813379e-06 6.145518941646956e-05
8.307257727449933e-05 2.174711966645396e-06 7.569247945959241e-05
7.798515757798313e-05 1.986027156441535e-06 8.956640115163439e-05
7.798515757798321e-05 1.986027156441538e-06 8.956640115163423e-05
1.983162451273752e-05 -1.192296401479088e-07 2.456476279743328e-04
-1.392393554136821e-05 -1.223336083810015e-06 3.305086579880501e-04
-2.328152258433401e-05 -1.326292174544782e-06 3.441494911927860e-04
-8.241136616159869e-06 -4.280979123522082e-07 2.865701275885406e-04
3.119722236315425e-05 1.471246702767707e-06 1.577705671753137e-04
3.119722236315399e-05 1.471246702767694e-06 1.577705671753146e-04
3.494784391057363e-05 1.645223500005694e-06 1.458453359413681e-04
3.882294491213187e-05 1.824308207207613e-06 1.335567363563551e-04
4.282252536782866e-05 2.008500824373452e-06 1.209047684202756e-04
4.694658527766405e-05 2.197801351503210e-06 1.078894321331296e-04
5.119512464163798e-05 2.392209788596886e-06 9.451072749491697e-05
5.119512464163798e-05 2.392209788596886e-06 9.451072749491697e-05
9.606281635538088e-06 5.184707245759075e-07 2.070915722437722e-04
-1.826289781487635e-05 -6.419290041229976e-07 2.786345297486761e-04
-3.241241370960530e-05 -1.088989397499829e-06 3.091396000096285e-04
-3.284226604864880e-05 -8.227104555545869e-07 2.986067830266294e-04
-1.955245483200684e-05 1.569078217127290e-07 2.470360787996789e-04
-1.955245483200689e-05 1.569078217127252e-07 2.470360787996791e-04
-1.453722073257671e-05 4.842762055134801e-07 2.293072814105097e-04
-8.791353662696121e-06 8.496330746287671e-07 2.093930344047110e-04
-2.314853622365146e-06 1.252978429058586e-06 1.872933377822830e-04
4.892279388416218e-06 1.694312268802937e-06 1.630081915432256e-04
1.283004536964798e-05 2.173634593861819e-06 1.365375956875388e-04
1.283004536964798e-05 2.173634593861819e-06 1.365375956875388e-04
-9.651124193894467e-06 7.903970971458854e-07 2.021704406679226e-04
-2.613848461624938e-05 -1.677414447348854e-07 2.485543872571853e-04
-3.663203589741675e-05 -7.007810317804930e-07 2.756894354553269e-04
-4.113177803739659e-05 -8.087216639909379e-07 2.835755852623475e-04
-3.963771103618890e-05 -4.915633413662200e-07 2.722128366782470e-04
-3.963771103618886e-05 -4.915633413662149e-07 2.722128366782468e-04
-3.697716516252840e-05 -2.068718873359268e-07 2.606846787628236e-04
-3.307822897044708e-05 1.656499292631619e-07 2.451794757252882e-04
-2.794090245994488e-05 6.260021084310519e-07 2.256972275656406e-04
-2.156518563102184e-05 1.174184650167742e-06 2.022379342838809e-04
-1.395107848367793e-05 1.810197554473233e-06 1.748015958800090e-04
-1.395107848367793e-05 1.810197554473233e-06 1.748015958800090e-04
-2.490346479357915e-05 9.464102314670532e-07 2.045151442157305e-04
-3.350410125884655e-05 2.935305551381693e-07 2.275863927147999e-04
-3.975298787948009e-05 -1.484414745134195e-07 2.440153413772170e-04
-4.365012465547980e-05 -3.795058574877125e-07 2.538019902029818e-04
-4.519551158684568e-05 -3.996625937847100e-07 2.569463391920944e-04
-4.519551158684570e-05 -3.996625937847074e-07 2.569463391920944e-04
-4.477157807298100e-05 -2.695273613507792e-07 2.547997366669468e-04
-4.292498107286901e-05 -1.180602166875884e-08 2.486349527591689e-04
-3.965572058650970e-05 3.735014252613535e-07 2.384519874687607e-04
-3.496379661390308e-05 8.863949794395590e-07 2.242508407957220e-04
-2.884920915504915e-05 1.526874640865856e-06 2.060315127400529e-04
        </DataArray>
      </PointData>

    </Piece>
  </UnstructuredGrid>
</VTKFile>
