<?xml version="1.0" ?> 
<!-- 
# vtk DataFile Version 3.0
-->
<VTKFile type="UnstructuredGrid" version="0.1" compressor="vtkZLibDataCompressor" byte_order="LittleEndian">
  <UnstructuredGrid>
    <FieldData>
      <DataArray type="Float64" Name="TIME" NumberOfTuples="1" format="ascii">
1e-08
      </DataArray>
    </FieldData>

    <Piece NumberOfPoints="30" NumberOfCells="0" >
      <Points>
        <DataArray type="Float64" NumberOfComponents="3" format="ascii">
-4.500000000000000e+00 3.000000000000000e-01 0.000000000000000e+00
-4.000000000000000e+00 3.000000000000000e-01 0.000000000000000e+00
-4.000000000000001e+00 3.000000000000000e-01 0.000000000000000e+00
-3.357142857140000e+00 3.000000000000000e-01 0.000000000000000e+00
-3.357142857140000e+00 3.000000000000000e-01 0.000000000000000e+00
-3.000000000000000e+00 3.000000000000000e-01 0.000000000000000e+00
-3.000000000000000e+00 3.000000000000000e-01 0.000000000000000e+00
-2.214285714290000e+00 3.000000000000000e-01 0.000000000000000e+00
-2.214285714290000e+00 3.000000000000000e-01 0.000000000000000e+00
-2.000000000000000e+00 3.000000000000000e-01 0.000000000000000e+00
-2.000000000000001e+00 3.000000000000000e-01 0.000000000000000e+00
-1.071428571430000e+00 3.000000000000000e-01 0.000000000000000e+00
-1.071428571430000e+00 3.000000000000000e-01 0.000000000000000e+00
-1.000000000000000e+00 3.000000000000000e-01 0.000000000000000e+00
-1.000000000000000e+00 2.999999999999999e-01 0.000000000000000e+00
1.249000902703301e-16 3.000000000000000e-01 0.000000000000000e+00
-8.604228440844963e-16 3.000000000000000e-01 0.000000000000000e+00
7.142857142860000e-02 3.000000000000000e-01 0.000000000000000e+00
7.142857142860000e-02 3.000000000000000e-01 0.000000000000000e+00
1.000000000000000e+00 2.999999999999999e-01 0.000000000000000e+00
9.999999999999997e-01 3.000000000000000e-01 0.000000000000000e+00
1.214285714290000e+00 3.000000000000000e-01 0.000000000000000e+00
1.214285714290000e+00 3.000000000000000e-01 0.000000000000000e+00
2.000000000000000e+00 3.000000000000000e-01 0.000000000000000e+00
2.000000000000001e+00 3.000000000000000e-01 0.000000000000000e+00
2.357142857140000e+00 3.000000000000000e-01 0.000000000000000e+00
2.357142857140000e+00 3.000000000000000e-01 0.000000000000000e+00
3.000000000000000e+00 3.000000000000000e-01 0.000000000000000e+00
3.000000000000004e+00 3.000000000000000e-01 0.000000000000000e+00
3.500000000000000e+00 3.000000000000000e-01 0.000000000000000e+00
        </DataArray>
      </Points>

      <Cells>
        <DataArray type="Int32" Name="connectivity" format="ascii">
0 1 2 3 4 5 6 7 8 9 10 11 12 13 14 15 16 17 18 19 20 21 22 23 24 25 26 27 28 29 
        </DataArray>
        <DataArray type="Int32" Name="offsets" format="ascii">

        </DataArray>
        <DataArray type="UInt8" Name="types" format="ascii">

        </DataArray>
      </Cells>

  <PointData>
        <DataArray type="Float64" Name="displacement" NumberOfComponents="3" format="ascii">
-1.923493182749425e-04 1.187246502841854e-03 7.164562481076343e-03
-6.492014726608986e-04 -7.777137169006632e-04 2.814754933361759e-02
-6.492014726608986e-04 -7.777137169006632e-04 2.814754933361754e-02
-1.972135921539664e-03 -4.412754134928143e-04 6.834324408697243e-02
-1.972135921539664e-03 -4.412754134928143e-04 6.834324408697243e-02
-3.172222612140452e-03 -1.092864083629574e-03 9.745909640285892e-02
-3.172222612141340e-03 -1.092864083629574e-03 9.745909640285889e-02
-6.924299515462806e-03 -1.230998619245971e-03 1.739408137756824e-01
-6.924299515462806e-03 -1.230998619245971e-03 1.739408137756824e-01
-8.241965151783770e-03 -1.604949666171862e-03 1.977080170050446e-01
-8.241965151784214e-03 -1.604949666171918e-03 1.977080170050445e-01
-1.510211568904229e-02 -2.090770479288462e-03 3.106209088466651e-01
-1.510211568904229e-02 -2.090770479288462e-03 3.106209088466651e-01
-1.570951732672565e-02 -2.206458865894712e-03 3.199519223214411e-01
-1.570951732672565e-02 -2.206458865894656e-03 3.199519223214411e-01
-2.504408234109023e-02 -2.918631131715532e-03 4.568260819143715e-01
-2.504408234109023e-02 -2.918631131715532e-03 4.568260819143712e-01
-2.576719204132871e-02 -3.003962612273148e-03 4.670123576310984e-01
-2.576719204132871e-02 -3.003962612273148e-03 4.670123576310984e-01
-3.559616728911486e-02 -3.718377773028914e-03 6.024130620171304e-01
-3.559616728911486e-02 -3.718377773028969e-03 6.024130620171304e-01
-3.796032290111584e-02 -3.904241897463134e-03 6.343149961938135e-01
-3.796032290111584e-02 -3.904241897463134e-03 6.343149961938135e-01
-4.678174996006645e-02 -4.482707590348800e-03 7.522963583723368e-01
-4.678174996006534e-02 -4.482707590348800e-03 7.522963583723370e-01
-5.084817692977772e-02 -4.735846252402864e-03 8.062941487221200e-01
-5.084817692977772e-02 -4.735846252402864e-03 8.062941487221200e-01
-5.818359985934585e-02 -5.159505748828841e-03 9.035613999664232e-01
-5.818359985934585e-02 -5.159505748828896e-03 9.035613999664237e-01
-6.391693018594724e-02 -5.466461945840717e-03 9.792594760551124e-01
        </DataArray>
      </PointData>

    </Piece>
  </UnstructuredGrid>
</VTKFile>
