<?xml version="1.0" ?> 
<!-- 
# vtk DataFile Version 3.0
-->
<VTKFile type="UnstructuredGrid" version="0.1" compressor="vtkZLibDataCompressor" byte_order="LittleEndian">
  <UnstructuredGrid>
    <FieldData>
      <DataArray type="Float64" Name="TIME" NumberOfTuples="1" format="ascii">
1
      </DataArray>
    </FieldData>

    <Piece NumberOfPoints="204" NumberOfCells="0" >
      <Points>
        <DataArray type="Float64" NumberOfComponents="3" format="ascii">
-5.000000000000000e+00 -5.000000000000000e-01 5.000000000000000e-01
-5.000000000000000e+00 -5.000000000000000e-01 -5.000000000000000e-01
-5.000000000000000e+00 5.000000000000000e-01 -5.000000000000000e-01
-5.000000000000000e+00 5.000000000000000e-01 5.000000000000000e-01
-4.000000000000000e+00 -5.000000000000000e-01 5.000000000000000e-01
-4.000000000000000e+00 -5.000000000000000e-01 -5.000000000000000e-01
-4.000000000000000e+00 5.000000000000000e-01 -5.000000000000000e-01
-4.000000000000000e+00 5.000000000000000e-01 5.000000000000000e-01
-5.000000000000000e+00 -5.000000000000000e-01 0.000000000000000e+00
-5.000000000000000e+00 0.000000000000000e+00 -5.000000000000000e-01
-5.000000000000000e+00 5.000000000000000e-01 0.000000000000000e+00
-5.000000000000000e+00 0.000000000000000e+00 5.000000000000000e-01
-4.500000000000000e+00 -5.000000000000000e-01 5.000000000000000e-01
-4.500000000000000e+00 -5.000000000000000e-01 -5.000000000000000e-01
-4.500000000000000e+00 5.000000000000000e-01 -5.000000000000000e-01
-4.500000000000000e+00 5.000000000000000e-01 5.000000000000000e-01
-4.000000000000000e+00 -5.000000000000000e-01 0.000000000000000e+00
-4.000000000000000e+00 0.000000000000000e+00 -5.000000000000000e-01
-4.000000000000000e+00 5.000000000000000e-01 0.000000000000000e+00
-4.000000000000000e+00 0.000000000000000e+00 5.000000000000000e-01
-4.500000000000000e+00 0.000000000000000e+00 0.000000000000000e+00
-5.000000000000000e+00 0.000000000000000e+00 0.000000000000000e+00
-4.000000000000000e+00 0.000000000000000e+00 0.000000000000000e+00
-4.500000000000000e+00 0.000000000000000e+00 5.000000000000000e-01
-4.500000000000000e+00 0.000000000000000e+00 -5.000000000000000e-01
-4.500000000000000e+00 -5.000000000000000e-01 0.000000000000000e+00
-4.500000000000000e+00 5.000000000000000e-01 0.000000000000000e+00
-3.000000000000000e+00 -5.000000000000000e-01 5.000000000000000e-01
-3.000000000000000e+00 -5.000000000000000e-01 -5.000000000000000e-01
-3.000000000000000e+00 5.000000000000000e-01 -5.000000000000000e-01
-3.000000000000000e+00 5.000000000000000e-01 5.000000000000000e-01
-3.500000000000000e+00 -5.000000000000000e-01 5.000000000000000e-01
-3.500000000000000e+00 -5.000000000000000e-01 -5.000000000000000e-01
-3.500000000000000e+00 5.000000000000000e-01 -5.000000000000000e-01
-3.500000000000000e+00 5.000000000000000e-01 5.000000000000000e-01
-3.000000000000000e+00 -5.000000000000000e-01 0.000000000000000e+00
-3.000000000000000e+00 0.000000000000000e+00 -5.000000000000000e-01
-3.000000000000000e+00 5.000000000000000e-01 0.000000000000000e+00
-3.000000000000000e+00 0.000000000000000e+00 5.000000000000000e-01
-3.500000000000000e+00 0.000000000000000e+00 0.000000000000000e+00
-3.000000000000000e+00 0.000000000000000e+00 0.000000000000000e+00
-3.500000000000000e+00 0.000000000000000e+00 5.000000000000000e-01
-3.500000000000000e+00 0.000000000000000e+00 -5.000000000000000e-01
-3.500000000000000e+00 -5.000000000000000e-01 0.000000000000000e+00
-3.500000000000000e+00 5.000000000000000e-01 0.000000000000000e+00
-2.000000000000000e+00 -5.000000000000000e-01 5.000000000000000e-01
-2.000000000000000e+00 -5.000000000000000e-01 -5.000000000000000e-01
-2.000000000000000e+00 5.000000000000000e-01 -5.000000000000000e-01
-2.000000000000000e+00 5.000000000000000e-01 5.000000000000000e-01
-2.500000000000000e+00 -5.000000000000000e-01 5.000000000000000e-01
-2.500000000000000e+00 -5.000000000000000e-01 -5.000000000000000e-01
-2.500000000000000e+00 5.000000000000000e-01 -5.000000000000000e-01
-2.500000000000000e+00 5.000000000000000e-01 5.000000000000000e-01
-2.000000000000000e+00 -5.000000000000000e-01 0.000000000000000e+00
-2.000000000000000e+00 0.000000000000000e+00 -5.000000000000000e-01
-2.000000000000000e+00 5.000000000000000e-01 0.000000000000000e+00
-2.000000000000000e+00 0.000000000000000e+00 5.000000000000000e-01
-2.500000000000000e+00 0.000000000000000e+00 0.000000000000000e+00
-2.000000000000000e+00 0.000000000000000e+00 0.000000000000000e+00
-2.500000000000000e+00 0.000000000000000e+00 5.000000000000000e-01
-2.500000000000000e+00 0.000000000000000e+00 -5.000000000000000e-01
-2.500000000000000e+00 -5.000000000000000e-01 0.000000000000000e+00
-2.500000000000000e+00 5.000000000000000e-01 0.000000000000000e+00
-1.000000000000000e+00 -5.000000000000000e-01 5.000000000000000e-01
-1.000000000000000e+00 -5.000000000000000e-01 -5.000000000000000e-01
-1.000000000000000e+00 5.000000000000000e-01 -5.000000000000000e-01
-1.000000000000000e+00 5.000000000000000e-01 5.000000000000000e-01
-1.500000000000000e+00 -5.000000000000000e-01 5.000000000000000e-01
-1.500000000000000e+00 -5.000000000000000e-01 -5.000000000000000e-01
-1.500000000000000e+00 5.000000000000000e-01 -5.000000000000000e-01
-1.500000000000000e+00 5.000000000000000e-01 5.000000000000000e-01
-1.000000000000000e+00 -5.000000000000000e-01 0.000000000000000e+00
-1.000000000000000e+00 0.000000000000000e+00 -5.000000000000000e-01
-1.000000000000000e+00 5.000000000000000e-01 0.000000000000000e+00
-1.000000000000000e+00 0.000000000000000e+00 5.000000000000000e-01
-1.500000000000000e+00 0.000000000000000e+00 0.000000000000000e+00
-1.000000000000000e+00 0.000000000000000e+00 0.000000000000000e+00
-1.500000000000000e+00 0.000000000000000e+00 5.000000000000000e-01
-1.500000000000000e+00 0.000000000000000e+00 -5.000000000000000e-01
-1.500000000000000e+00 -5.000000000000000e-01 0.000000000000000e+00
-1.500000000000000e+00 5.000000000000000e-01 0.000000000000000e+00
0.000000000000000e+00 -5.000000000000000e-01 5.000000000000000e-01
0.000000000000000e+00 -5.000000000000000e-01 -5.000000000000000e-01
0.000000000000000e+00 5.000000000000000e-01 -5.000000000000000e-01
0.000000000000000e+00 5.000000000000000e-01 5.000000000000000e-01
-5.000000000000000e-01 -5.000000000000000e-01 5.000000000000000e-01
-5.000000000000000e-01 -5.000000000000000e-01 -5.000000000000000e-01
-5.000000000000000e-01 5.000000000000000e-01 -5.000000000000000e-01
-5.000000000000000e-01 5.000000000000000e-01 5.000000000000000e-01
0.000000000000000e+00 -5.000000000000000e-01 0.000000000000000e+00
0.000000000000000e+00 0.000000000000000e+00 -5.000000000000000e-01
0.000000000000000e+00 5.000000000000000e-01 0.000000000000000e+00
0.000000000000000e+00 0.000000000000000e+00 5.000000000000000e-01
-5.000000000000000e-01 0.000000000000000e+00 0.000000000000000e+00
0.000000000000000e+00 0.000000000000000e+00 0.000000000000000e+00
-5.000000000000000e-01 0.000000000000000e+00 5.000000000000000e-01
-5.000000000000000e-01 0.000000000000000e+00 -5.000000000000000e-01
-5.000000000000000e-01 -5.000000000000000e-01 0.000000000000000e+00
-5.000000000000000e-01 5.000000000000000e-01 0.000000000000000e+00
1.000000000000000e+00 -5.000000000000000e-01 5.000000000000000e-01
1.000000000000000e+00 -5.000000000000000e-01 -5.000000000000000e-01
1.000000000000000e+00 5.000000000000000e-01 -5.000000000000000e-01
1.000000000000000e+00 5.000000000000000e-01 5.000000000000000e-01
5.000000000000000e-01 -5.000000000000000e-01 5.000000000000000e-01
5.000000000000000e-01 -5.000000000000000e-01 -5.000000000000000e-01
5.000000000000000e-01 5.000000000000000e-01 -5.000000000000000e-01
5.000000000000000e-01 5.000000000000000e-01 5.000000000000000e-01
1.000000000000000e+00 -5.000000000000000e-01 0.000000000000000e+00
1.000000000000000e+00 0.000000000000000e+00 -5.000000000000000e-01
1.000000000000000e+00 5.000000000000000e-01 0.000000000000000e+00
1.000000000000000e+00 0.000000000000000e+00 5.000000000000000e-01
5.000000000000000e-01 0.000000000000000e+00 0.000000000000000e+00
1.000000000000000e+00 0.000000000000000e+00 0.000000000000000e+00
5.000000000000000e-01 0.000000000000000e+00 5.000000000000000e-01
5.000000000000000e-01 0.000000000000000e+00 -5.000000000000000e-01
5.000000000000000e-01 -5.000000000000000e-01 0.000000000000000e+00
5.000000000000000e-01 5.000000000000000e-01 0.000000000000000e+00
2.000000000000000e+00 -5.000000000000000e-01 5.000000000000000e-01
2.000000000000000e+00 -5.000000000000000e-01 -5.000000000000000e-01
2.000000000000000e+00 5.000000000000000e-01 -5.000000000000000e-01
2.000000000000000e+00 5.000000000000000e-01 5.000000000000000e-01
1.500000000000000e+00 -5.000000000000000e-01 5.000000000000000e-01
1.500000000000000e+00 -5.000000000000000e-01 -5.000000000000000e-01
1.500000000000000e+00 5.000000000000000e-01 -5.000000000000000e-01
1.500000000000000e+00 5.000000000000000e-01 5.000000000000000e-01
2.000000000000000e+00 -5.000000000000000e-01 0.000000000000000e+00
2.000000000000000e+00 0.000000000000000e+00 -5.000000000000000e-01
2.000000000000000e+00 5.000000000000000e-01 0.000000000000000e+00
2.000000000000000e+00 0.000000000000000e+00 5.000000000000000e-01
1.500000000000000e+00 0.000000000000000e+00 0.000000000000000e+00
2.000000000000000e+00 0.000000000000000e+00 0.000000000000000e+00
1.500000000000000e+00 0.000000000000000e+00 5.000000000000000e-01
1.500000000000000e+00 0.000000000000000e+00 -5.000000000000000e-01
1.500000000000000e+00 -5.000000000000000e-01 0.000000000000000e+00
1.500000000000000e+00 5.000000000000000e-01 0.000000000000000e+00
3.000000000000000e+00 -5.000000000000000e-01 5.000000000000000e-01
3.000000000000000e+00 -5.000000000000000e-01 -5.000000000000000e-01
3.000000000000000e+00 5.000000000000000e-01 -5.000000000000000e-01
3.000000000000000e+00 5.000000000000000e-01 5.000000000000000e-01
2.500000000000000e+00 -5.000000000000000e-01 5.000000000000000e-01
2.500000000000000e+00 -5.000000000000000e-01 -5.000000000000000e-01
2.500000000000000e+00 5.000000000000000e-01 -5.000000000000000e-01
2.500000000000000e+00 5.000000000000000e-01 5.000000000000000e-01
3.000000000000000e+00 -5.000000000000000e-01 0.000000000000000e+00
3.000000000000000e+00 0.000000000000000e+00 -5.000000000000000e-01
3.000000000000000e+00 5.000000000000000e-01 0.000000000000000e+00
3.000000000000000e+00 0.000000000000000e+00 5.000000000000000e-01
2.500000000000000e+00 0.000000000000000e+00 0.000000000000000e+00
3.000000000000000e+00 0.000000000000000e+00 0.000000000000000e+00
2.500000000000000e+00 0.000000000000000e+00 5.000000000000000e-01
2.500000000000000e+00 0.000000000000000e+00 -5.000000000000000e-01
2.500000000000000e+00 -5.000000000000000e-01 0.000000000000000e+00
2.500000000000000e+00 5.000000000000000e-01 0.000000000000000e+00
4.000000000000000e+00 -5.000000000000000e-01 5.000000000000000e-01
4.000000000000000e+00 -5.000000000000000e-01 -5.000000000000000e-01
4.000000000000000e+00 5.000000000000000e-01 -5.000000000000000e-01
4.000000000000000e+00 5.000000000000000e-01 5.000000000000000e-01
3.500000000000000e+00 -5.000000000000000e-01 5.000000000000000e-01
3.500000000000000e+00 -5.000000000000000e-01 -5.000000000000000e-01
3.500000000000000e+00 5.000000000000000e-01 -5.000000000000000e-01
3.500000000000000e+00 5.000000000000000e-01 5.000000000000000e-01
4.000000000000000e+00 -5.000000000000000e-01 0.000000000000000e+00
4.000000000000000e+00 0.000000000000000e+00 -5.000000000000000e-01
4.000000000000000e+00 5.000000000000000e-01 0.000000000000000e+00
4.000000000000000e+00 0.000000000000000e+00 5.000000000000000e-01
3.500000000000000e+00 0.000000000000000e+00 0.000000000000000e+00
4.000000000000000e+00 0.000000000000000e+00 0.000000000000000e+00
3.500000000000000e+00 0.000000000000000e+00 5.000000000000000e-01
3.500000000000000e+00 0.000000000000000e+00 -5.000000000000000e-01
3.500000000000000e+00 -5.000000000000000e-01 0.000000000000000e+00
3.500000000000000e+00 5.000000000000000e-01 0.000000000000000e+00
5.000000000000000e+00 -5.000000000000000e-01 5.000000000000000e-01
5.000000000000000e+00 -5.000000000000000e-01 -5.000000000000000e-01
5.000000000000000e+00 5.000000000000000e-01 -5.000000000000000e-01
5.000000000000000e+00 5.000000000000000e-01 5.000000000000000e-01
4.500000000000000e+00 -5.000000000000000e-01 5.000000000000000e-01
4.500000000000000e+00 -5.000000000000000e-01 -5.000000000000000e-01
4.500000000000000e+00 5.000000000000000e-01 -5.000000000000000e-01
4.500000000000000e+00 5.000000000000000e-01 5.000000000000000e-01
5.000000000000000e+00 -5.000000000000000e-01 0.000000000000000e+00
5.000000000000000e+00 0.000000000000000e+00 -5.000000000000000e-01
5.000000000000000e+00 5.000000000000000e-01 0.000000000000000e+00
5.000000000000000e+00 0.000000000000000e+00 5.000000000000000e-01
4.500000000000000e+00 0.000000000000000e+00 0.000000000000000e+00
5.000000000000000e+00 0.000000000000000e+00 0.000000000000000e+00
4.500000000000000e+00 0.000000000000000e+00 5.000000000000000e-01
4.500000000000000e+00 0.000000000000000e+00 -5.000000000000000e-01
4.500000000000000e+00 -5.000000000000000e-01 0.000000000000000e+00
4.500000000000000e+00 5.000000000000000e-01 0.000000000000000e+00
-4.500000000000000e+00 3.000000000000000e-01 0.000000000000000e+00
-3.928571428570000e+00 3.000000000000000e-01 0.000000000000000e+00
-3.357142857140000e+00 3.000000000000000e-01 0.000000000000000e+00
-2.785714285710000e+00 3.000000000000000e-01 0.000000000000000e+00
-2.214285714290000e+00 3.000000000000000e-01 0.000000000000000e+00
-1.642857142860000e+00 3.000000000000000e-01 0.000000000000000e+00
-1.071428571430000e+00 3.000000000000000e-01 0.000000000000000e+00
-5.000000000000000e-01 3.000000000000000e-01 0.000000000000000e+00
7.142857142860000e-02 3.000000000000000e-01 0.000000000000000e+00
6.428571428570000e-01 3.000000000000000e-01 0.000000000000000e+00
1.214285714290000e+00 3.000000000000000e-01 0.000000000000000e+00
1.785714285710000e+00 3.000000000000000e-01 0.000000000000000e+00
2.357142857140000e+00 3.000000000000000e-01 0.000000000000000e+00
2.928571428570000e+00 3.000000000000000e-01 0.000000000000000e+00
3.500000000000000e+00 3.000000000000000e-01 0.000000000000000e+00
        </DataArray>
      </Points>

      <Cells>
        <DataArray type="Int32" Name="connectivity" format="ascii">
0 1 2 3 4 5 6 7 8 9 10 11 12 13 14 15 16 17 18 19 20 21 22 23 24 25 26 27 28 29 30 31 32 33 34 35 36 37 38 39 40 41 42 43 44 45 46 47 48 49 50 51 52 53 54 55 56 57 58 59 60 61 62 63 64 65 66 67 68 69 70 71 72 73 74 75 76 77 78 79 80 81 82 83 84 85 86 87 88 89 90 91 92 93 94 95 96 97 98 99 100 101 102 103 104 105 106 107 108 109 110 111 112 113 114 115 116 117 118 119 120 121 122 123 124 125 126 127 128 129 130 131 132 133 134 135 136 137 138 139 140 141 142 143 144 145 146 147 148 149 150 151 152 153 154 155 156 157 158 159 160 161 162 163 164 165 166 167 168 169 170 171 172 173 174 175 176 177 178 179 180 181 182 183 184 185 186 187 188 189 190 191 192 193 194 195 196 197 198 199 200 201 202 203 
        </DataArray>
        <DataArray type="Int32" Name="offsets" format="ascii">

        </DataArray>
        <DataArray type="UInt8" Name="types" format="ascii">

        </DataArray>
      </Cells>

  <PointData>
        <DataArray type="Float64" Name="displacement" NumberOfComponents="3" format="ascii">
0.000000000000000e+00 0.000000000000000e+00 0.000000000000000e+00
0.000000000000000e+00 0.000000000000000e+00 0.000000000000000e+00
0.000000000000000e+00 0.000000000000000e+00 0.000000000000000e+00
0.000000000000000e+00 0.000000000000000e+00 0.000000000000000e+00
-4.959810553051777e-02 -3.717923060783297e-03 4.673908246439776e-02
4.419143633361782e-02 3.224389540510961e-03 5.173862427008807e-02
4.408724744961846e-02 3.206400880516173e-03 5.881403463543596e-02
-4.973422224938823e-02 -3.753408175677588e-03 5.376145384690645e-02
0.000000000000000e+00 0.000000000000000e+00 0.000000000000000e+00
0.000000000000000e+00 0.000000000000000e+00 0.000000000000000e+00
0.000000000000000e+00 0.000000000000000e+00 0.000000000000000e+00
0.000000000000000e+00 0.000000000000000e+00 0.000000000000000e+00
-2.564978303130432e-02 -1.814322871783857e-03 1.193492481908833e-02
2.402337987994371e-02 1.691056568788891e-03 1.387931850784252e-02
2.406043929339852e-02 1.682811941305192e-03 1.741026267424655e-02
-2.568568617329466e-02 -1.824663820824687e-03 1.546047578821871e-02
-2.618524249395684e-03 -2.474681891193688e-04 4.921464034613022e-02
4.413994552416464e-02 3.215400756530328e-03 5.527492623079002e-02
-2.794385761109900e-03 -2.753301109695371e-04 5.643401438935352e-02
-4.966584052823237e-02 -3.735652108922165e-03 5.024792474207651e-02
-8.825738182975595e-04 -6.936284936760524e-05 1.465626403080733e-02
0.000000000000000e+00 0.000000000000000e+00 0.000000000000000e+00
-2.704283788034914e-03 -2.613004865112397e-04 5.281142011794058e-02
-2.566874380648179e-02 -1.819472572604615e-03 1.369548690513521e-02
2.404109980757711e-02 1.686943227941419e-03 1.564517179987888e-02
-8.265136486703078e-04 -6.450372928059682e-05 1.290768416302797e-02
-9.446636287668753e-04 -7.416704046926582e-05 1.640283254991579e-02
-9.424303973776374e-02 -7.861869353941004e-03 1.733506776826114e-01
7.015215956023951e-02 5.084407734220817e-03 1.873628221962914e-01
6.964846299429410e-02 5.000636200338639e-03 2.004458006401292e-01
-9.476491741242772e-02 -7.954822377891177e-03 1.864339135167823e-01
-7.203454594777220e-02 -5.710591571365048e-03 1.014127392049232e-01
5.949443190097342e-02 4.352470669133042e-03 1.105623005727210e-01
5.921679520987846e-02 4.303179888941352e-03 1.207460202400354e-01
-7.227457117478743e-02 -5.769073633245872e-03 1.115859691328102e-01
-1.201968790932425e-02 -1.389845200689629e-03 1.803501346421504e-01
6.990036562821675e-02 5.042534225633923e-03 1.939042297865489e-01
-1.252370491243033e-02 -1.477941509878704e-03 1.934938342326566e-01
-9.450332148161569e-02 -7.908301800227825e-03 1.798897510617714e-01
-6.333387071465518e-03 -7.079544206421797e-04 1.110876009348361e-01
-1.227230593234947e-02 -1.433857101277560e-03 1.869168160862505e-01
-7.215361715784986e-02 -5.739796365166169e-03 1.064964299914881e-01
5.935649525993724e-02 4.327842376066754e-03 1.156533312132376e-01
-6.219574030007422e-03 -6.810746213654355e-04 1.059889182349556e-01
-6.442719164667281e-03 -7.348561804162452e-04 1.161930343957673e-01
-1.385728785185061e-01 -1.257487422747731e-02 3.600649284551638e-01
7.690190353604209e-02 5.449564971196318e-03 3.838863177516399e-01
7.557292743123112e-02 5.284646565690236e-03 4.020931424525464e-01
-1.399046163228693e-01 -1.274736797346506e-02 3.782771527837966e-01
-1.162193940339611e-01 -1.015889191807466e-02 2.603138728916957e-01
7.574599461894639e-02 5.446914673336404e-03 2.792631310218039e-01
7.484904576861856e-02 5.324985823413915e-03 2.950425006142146e-01
-1.171070179810620e-01 -1.029145280067779e-02 2.760976652197248e-01
-3.082312045851781e-02 -3.563757145408770e-03 3.719768376913914e-01
7.623767642801078e-02 5.367121187923683e-03 3.929894358351151e-01
-3.213050935849095e-02 -3.731150911558334e-03 3.901988112920055e-01
-1.392378189980946e-01 -1.266105902486103e-02 3.691681780834686e-01
-2.064143433940771e-02 -2.419490502890012e-03 2.777038266772118e-01
-3.147786385570171e-02 -3.647443064134758e-03 3.810856240543800e-01
-1.166621490097833e-01 -1.022511280215783e-02 2.682028916747401e-01
7.529826858483432e-02 5.385968343515292e-03 2.871526650498011e-01
-2.020665078994120e-02 -2.356318284257589e-03 2.697831030961605e-01
-2.107413839693704e-02 -2.482772301190122e-03 2.856365604791484e-01
-1.839418425882306e-01 -1.770631746832887e-02 5.902166133430633e-01
6.653689460539899e-02 4.520260360539098e-03 6.224238936975869e-01
6.425347065575113e-02 4.268771853030996e-03 6.448367413685490e-01
-1.862213689329554e-01 -1.796566411891694e-02 6.126346684008763e-01
-1.610426835644258e-01 -1.510281497245536e-02 4.706634723185025e-01
7.357530223270961e-02 5.139833367015596e-03 4.988955468234925e-01
7.176725726529454e-02 4.932689467433803e-03 5.193309262329462e-01
-1.628511243354440e-01 -1.532068841769288e-02 4.911020236769247e-01
-5.869787454527602e-02 -6.593972138220583e-03 6.063204315626167e-01
6.539558374402675e-02 4.394534005275071e-03 6.336300241095626e-01
-6.095277834311233e-02 -6.847281780948782e-03 6.287496361979402e-01
-1.850805478904087e-01 -1.783591126695673e-02 6.014226297994556e-01
-4.461535009234025e-02 -5.087316093689805e-03 4.950232277261045e-01
-5.982630813206874e-02 -6.720609278169937e-03 6.175327516546226e-01
-1.619458172149066e-01 -1.521166987895562e-02 4.808798495550699e-01
7.267167082602444e-02 5.036280715312238e-03 5.091133860704010e-01
-4.371593120936713e-02 -4.981918325582288e-03 4.847715434610057e-01
-4.551496319345494e-02 -5.192860559550833e-03 5.052875557919861e-01
-2.300892131061439e-01 -2.308558807316351e-02 8.498351484116201e-01
4.258918837082878e-02 2.493336366502610e-03 8.880972946381245e-01
3.944352849179524e-02 2.159984823174759e-03 9.138382269041632e-01
-2.332294546619485e-01 -2.342763227531417e-02 8.755806077224397e-01
-2.069053833238694e-01 -2.037863293219344e-02 7.171215344802022e-01
5.595249646560559e-02 3.635378368670898e-03 7.526301935363365e-01
5.322193493317246e-02 3.342426343146209e-03 7.768199768342948e-01
-2.096396224400170e-01 -2.068192894577065e-02 7.413154404900137e-01
-9.374829947813398e-02 -1.029694276638960e-02 8.689627269471168e-01
4.101666619809684e-02 2.326680325201855e-03 9.009676762293509e-01
-9.687567383310203e-02 -1.063186039487862e-02 8.947367882887364e-01
-2.316582655219648e-01 -2.325651063468268e-02 8.627047688290240e-01
-7.683088926599980e-02 -8.520071909891968e-03 7.469929906843652e-01
-9.531222794490501e-02 -1.046436395761001e-02 8.818464269132597e-01
-2.082713868786958e-01 -2.053018249591483e-02 7.292155135954712e-01
5.458742485103014e-02 3.488921021182022e-03 7.647253299518930e-01
-7.546712940001069e-02 -8.372167071427544e-03 7.348675313646761e-01
-7.819574726833595e-02 -8.668130566272159e-03 7.591298939386371e-01
-2.761667512075701e-01 -2.854392386608499e-02 1.127684588608995e+00
8.958733745118498e-03 -4.476733175380225e-04 1.169613359950970e+00
5.158016461514508e-03 -8.499256988407421e-04 1.197841032481036e+00
-2.799637153202034e-01 -2.895579041159501e-02 1.155917703251566e+00
-2.531446565203128e-01 -2.581609971001175e-02 9.870862537742233e-01
2.669956435686599e-02 1.127582283299408e-03 1.027432678277699e+00
2.320176870121846e-02 7.579330413902014e-04 1.054521634967483e+00
-2.566463951352744e-01 -2.619557212844083e-02 1.014178910116367e+00
-1.336030037549547e-01 -1.449654464949552e-02 1.148641852332070e+00
7.058532970657142e-03 -6.487797977216430e-04 1.183727358072202e+00
-1.373977816165961e-01 -1.490047246454316e-02 1.176921797219419e+00
-2.780641597446185e-01 -2.874973948851123e-02 1.141797953265521e+00
-1.149660332424847e-01 -1.253076819329262e-02 1.020821470195753e+00
-1.354999003018678e-01 -1.469844528657936e-02 1.162777354821037e+00
-2.548943867964137e-01 -2.600572651251182e-02 1.000629548775065e+00
2.495082076977798e-02 9.427757148345917e-04 1.040977380545250e+00
-1.132187738048249e-01 -1.234489152218679e-02 1.007251652816463e+00
-1.167144697687707e-01 -1.271679132592465e-02 1.034401220667605e+00
-3.214344828801021e-01 -3.392101678353673e-02 1.415243820432120e+00
-3.073414650525093e-02 -4.139579550928574e-03 1.458893979653479e+00
-3.494502136407461e-02 -4.591528169408457e-03 1.488784617187712e+00
-3.256451790790925e-01 -3.438305131458817e-02 1.445139443275445e+00
-2.988990319317955e-01 -3.125130683874515e-02 1.270682673933897e+00
-1.036432650391109e-02 -2.209630691304304e-03 1.313656085026494e+00
-1.439743607676985e-02 -2.639537225186549e-03 1.342815549496815e+00
-3.029346837544593e-01 -3.169061395305760e-02 1.299845720163264e+00
-1.760833931876437e-01 -1.903101011870648e-02 1.437059721415870e+00
-3.283951171074552e-02 -4.365535133981932e-03 1.473839601272990e+00
-1.802967082281964e-01 -1.948478724944339e-02 1.467013268830218e+00
-3.235387449797617e-01 -3.415190656261995e-02 1.430188434771198e+00
-1.566456479997008e-01 -1.694682477482695e-02 1.306762986114022e+00
-1.781891489156054e-01 -1.925781569075396e-02 1.452031372977894e+00
-3.009157398226749e-01 -3.147084260806070e-02 1.285261099704021e+00
-1.238077505826016e-02 -2.424565960590167e-03 1.328236008076783e+00
-1.546306090913807e-01 -1.673115185147628e-02 1.292162360026908e+00
-1.586618873488240e-01 -1.716262958982992e-02 1.321372326485717e+00
-3.656773726462462e-01 -3.907100841376412e-02 1.706688931972256e+00
-7.348975061914138e-02 -8.443016232258186e-03 1.750818122404006e+00
-7.788844875921311e-02 -8.921205505254074e-03 1.781542570380025e+00
-3.700633706626241e-01 -3.955873438240479e-02 1.737422709288221e+00
-3.436524908591477e-01 -3.653139621542729e-02 1.560739538474273e+00
-5.190201894946247e-02 -6.223941117607289e-03 1.604725104598338e+00
-5.623020417890490e-02 -6.692238474099796e-03 1.635135619442063e+00
-3.479794738837633e-01 -3.700906332539786e-02 1.591154849988489e+00
-2.195823996400456e-01 -2.375761280722661e-02 1.728744111020576e+00
-7.568933106822451e-02 -8.682092432770678e-03 1.766180672897484e+00
-2.239802060877432e-01 -2.423735856252320e-02 1.759534658956556e+00
-3.678693580945753e-01 -3.931474597518806e-02 1.722052842384704e+00
-1.999397701026136e-01 -2.161306873472095e-02 1.597950328620945e+00
-2.217804470716275e-01 -2.399740391476808e-02 1.744134289127551e+00
-3.458148738270923e-01 -3.677010454905477e-02 1.575944016456907e+00
-5.406608194540310e-02 -6.458071547391070e-03 1.619930550569670e+00
-1.977768384396155e-01 -2.137837684130460e-02 1.582725593171096e+00
-2.021041019873029e-01 -2.184788686713142e-02 1.613183368088331e+00
-4.093757365509690e-01 -4.394345101565750e-02 1.998918925997434e+00
-1.171335979109520e-01 -1.316596095562371e-02 2.043070084185697e+00
-1.215444816728616e-01 -1.365106548590656e-02 2.073903995418886e+00
-4.137706363331058e-01 -4.442913799541741e-02 2.029759501307022e+00
-3.875487048257986e-01 -4.153139249341570e-02 1.852791923174167e+00
-9.528810861059421e-02 -1.077503730774024e-02 1.896947888091014e+00
-9.971181144036362e-02 -1.125840273389271e-02 1.927777619111189e+00
-3.919423093261656e-01 -4.201986802906894e-02 1.883636302534311e+00
-2.632547373031263e-01 -2.855459995610912e-02 2.020995233951898e+00
-1.193392553742644e-01 -1.340851274121992e-02 2.058486874853659e+00
-2.676572502056525e-01 -2.903996887731663e-02 2.051827908019237e+00
-4.115731379737489e-01 -4.418629187557286e-02 2.014339016075970e+00
-2.436228675636153e-01 -2.639547308438816e-02 1.890294552966352e+00
-2.654561473376463e-01 -2.879728039614170e-02 2.036411677449052e+00
-3.897450438006278e-01 -4.177556266273959e-02 1.868212415660048e+00
-9.750030307052435e-02 -1.101670914497146e-02 1.912362780070649e+00
-2.414179869603956e-01 -2.615344588838497e-02 1.874866276571555e+00
-2.458278965181914e-01 -2.663757125458324e-02 1.905727462063085e+00
-4.530347378236007e-01 -4.874526082128255e-02 2.291147327927444e+00
-1.608007696027171e-01 -1.796920188254765e-02 2.335295836934038e+00
-1.652044042926587e-01 -1.845435433791396e-02 2.366132014272938e+00
-4.574379917037107e-01 -4.923053453688041e-02 2.321983972969325e+00
-4.312036083829603e-01 -4.634439682946443e-02 2.145033991576819e+00
-1.389689880856283e-01 -1.556755035900764e-02 2.189182701026086e+00
-1.433725661756627e-01 -1.605283740058471e-02 2.220017365287287e+00
-4.356055163282104e-01 -4.682962516417129e-02 2.175869008553954e+00
-3.069177903924401e-01 -3.335724578466075e-02 2.313221751859313e+00
-1.630025310089971e-01 -1.821177888869947e-02 2.350713924616064e+00
-3.113207497419221e-01 -3.384246004101966e-02 2.344057211103036e+00
-4.552363734462764e-01 -4.898789710746950e-02 2.306565596319846e+00
-2.872877580794472e-01 -3.119857618547363e-02 2.182525874384342e+00
-3.091192985923461e-01 -3.359985221286455e-02 2.328639517184377e+00
-4.334045358443204e-01 -4.658701131908861e-02 2.160451530915045e+00
-1.411707855945353e-01 -1.581019352619702e-02 2.204600037037248e+00
-2.850862875730459e-01 -3.095594798024747e-02 2.167108271178541e+00
-2.894892880390026e-01 -3.144120372518451e-02 2.197943501741958e+00
-1.015521885539529e-03 -7.205781866659398e-05 1.411010515946848e-02
6.020685350126171e-03 -1.029997337614526e-01 -3.723219264203761e-04
-7.853208875361783e-03 -9.035489348621011e-04 1.342363267871151e-01
6.051392888598930e-03 -1.810416360542618e-01 -1.410605489231075e-03
-2.685255689878144e-02 -3.136837394085322e-03 3.404822533631848e-01
6.084131135910098e-03 -2.347319505894006e-01 -2.299858592638696e-03
-5.818309217919279e-02 -6.549861665939232e-03 6.062142047802813e-01
6.118544467348266e-03 -2.686558919126039e-01 -2.992346363157650e-03
-9.900884894526470e-02 -1.085467743189899e-02 9.092938809464397e-01
6.152056499813038e-03 -2.873140916953474e-01 -3.485162370169627e-03
-1.456750733681631e-01 -1.577833390725180e-02 1.232925251147773e+00
6.180119460717217e-03 -2.952007475461209e-01 -3.790231608528573e-03
-1.950078972798686e-01 -2.107649290358008e-02 1.565352027987430e+00
6.197495827656981e-03 -2.967001448473235e-01 -3.929096026021453e-03
-2.449722286979926e-01 -2.654264064887810e-02 1.899650306824355e+00
        </DataArray>
        <DataArray type="Float64" Name="force_beam" NumberOfComponents="3" format="ascii">
0.000000000000000e+00 0.000000000000000e+00 0.000000000000000e+00
0.000000000000000e+00 0.000000000000000e+00 0.000000000000000e+00
0.000000000000000e+00 0.000000000000000e+00 0.000000000000000e+00
0.000000000000000e+00 0.000000000000000e+00 0.000000000000000e+00
0.000000000000000e+00 0.000000000000000e+00 0.000000000000000e+00
0.000000000000000e+00 0.000000000000000e+00 0.000000000000000e+00
0.000000000000000e+00 0.000000000000000e+00 0.000000000000000e+00
0.000000000000000e+00 0.000000000000000e+00 0.000000000000000e+00
0.000000000000000e+00 0.000000000000000e+00 0.000000000000000e+00
0.000000000000000e+00 0.000000000000000e+00 0.000000000000000e+00
0.000000000000000e+00 0.000000000000000e+00 0.000000000000000e+00
0.000000000000000e+00 0.000000000000000e+00 0.000000000000000e+00