<?xml version="1.0" ?> 
<!-- 
# vtk DataFile Version 3.0
-->
<VTKFile type="UnstructuredGrid" version="0.1" compressor="vtkZLibDataCompressor" byte_order="LittleEndian">
  <UnstructuredGrid>
    <FieldData>
      <DataArray type="Float64" Name="TIME" NumberOfTuples="1" format="ascii">
5.000000000000000e-01 
      </DataArray>
    </FieldData>

    <Piece NumberOfPoints="560" NumberOfCells="56" >
      <Points>
        <DataArray type="Float64" NumberOfComponents="3" format="ascii">
0.000000000000000e+00 0.000000000000000e+00 1.000000000000000e+00
0.000000000000000e+00 0.000000000000000e+00 0.000000000000000e+00
0.000000000000000e+00 5.000000000000000e-01 5.000000000000000e-01
5.000000000000000e-01 0.000000000000000e+00 5.000000000000000e-01
0.000000000000000e+00 0.000000000000000e+00 5.000000000000000e-01
0.000000000000000e+00 2.500000000000000e-01 2.500000000000000e-01
0.000000000000000e+00 2.500000000000000e-01 7.500000000000000e-01
2.500000000000000e-01 0.000000000000000e+00 7.500000000000000e-01
2.500000000000000e-01 0.000000000000000e+00 2.500000000000000e-01
2.500000000000000e-01 2.500000000000000e-01 5.000000000000000e-01
0.000000000000000e+00 0.000000000000000e+00 0.000000000000000e+00
0.000000000000000e+00 1.000000000000000e+00 0.000000000000000e+00
0.000000000000000e+00 5.000000000000000e-01 5.000000000000000e-01
5.000000000000000e-01 5.000000000000000e-01 0.000000000000000e+00
0.000000000000000e+00 5.000000000000000e-01 0.000000000000000e+00
0.000000000000000e+00 7.500000000000000e-01 2.500000000000000e-01
0.000000000000000e+00 2.500000000000000e-01 2.500000000000000e-01
2.500000000000000e-01 2.500000000000000e-01 0.000000000000000e+00
2.500000000000000e-01 7.500000000000000e-01 0.000000000000000e+00
2.500000000000000e-01 5.000000000000000e-01 2.500000000000000e-01
0.000000000000000e+00 1.000000000000000e+00 0.000000000000000e+00
0.000000000000000e+00 1.000000000000000e+00 1.000000000000000e+00
0.000000000000000e+00 5.000000000000000e-01 5.000000000000000e-01
5.000000000000000e-01 1.000000000000000e+00 5.000000000000000e-01
0.000000000000000e+00 1.000000000000000e+00 5.000000000000000e-01
0.000000000000000e+00 7.500000000000000e-01 7.500000000000000e-01
0.000000000000000e+00 7.500000000000000e-01 2.500000000000000e-01
2.500000000000000e-01 1.000000000000000e+00 2.500000000000000e-01
2.500000000000000e-01 1.000000000000000e+00 7.500000000000000e-01
2.500000000000000e-01 7.500000000000000e-01 5.000000000000000e-01
0.000000000000000e+00 1.000000000000000e+00 1.000000000000000e+00
0.000000000000000e+00 0.000000000000000e+00 1.000000000000000e+00
0.000000000000000e+00 5.000000000000000e-01 5.000000000000000e-01
5.000000000000000e-01 5.000000000000000e-01 1.000000000000000e+00
0.000000000000000e+00 5.000000000000000e-01 1.000000000000000e+00
0.000000000000000e+00 2.500000000000000e-01 7.500000000000000e-01
0.000000000000000e+00 7.500000000000000e-01 7.500000000000000e-01
2.500000000000000e-01 7.500000000000000e-01 1.000000000000000e+00
2.500000000000000e-01 2.500000000000000e-01 1.000000000000000e+00
2.500000000000000e-01 5.000000000000000e-01 7.500000000000000e-01
0.000000000000000e+00 0.000000000000000e+00 1.000000000000000e+00
1.000000000000000e+00 0.000000000000000e+00 1.000000000000000e+00
5.000000000000000e-01 0.000000000000000e+00 5.000000000000000e-01
5.000000000000000e-01 5.000000000000000e-01 1.000000000000000e+00
5.000000000000000e-01 0.000000000000000e+00 1.000000000000000e+00
7.500000000000000e-01 0.000000000000000e+00 7.500000000000000e-01
2.500000000000000e-01 0.000000000000000e+00 7.500000000000000e-01
2.500000000000000e-01 2.500000000000000e-01 1.000000000000000e+00
7.500000000000000e-01 2.500000000000000e-01 1.000000000000000e+00
5.000000000000000e-01 2.500000000000000e-01 7.500000000000000e-01
0.000000000000000e+00 0.000000000000000e+00 0.000000000000000e+00
1.000000000000000e+00 0.000000000000000e+00 0.000000000000000e+00
5.000000000000000e-01 5.000000000000000e-01 0.000000000000000e+00
5.000000000000000e-01 0.000000000000000e+00 5.000000000000000e-01
5.000000000000000e-01 0.000000000000000e+00 0.000000000000000e+00
7.500000000000000e-01 2.500000000000000e-01 0.000000000000000e+00
2.500000000000000e-01 2.500000000000000e-01 0.000000000000000e+00
2.500000000000000e-01 0.000000000000000e+00 2.500000000000000e-01
7.500000000000000e-01 0.000000000000000e+00 2.500000000000000e-01
5.000000000000000e-01 2.500000000000000e-01 2.500000000000000e-01
0.000000000000000e+00 1.000000000000000e+00 0.000000000000000e+00
1.000000000000000e+00 1.000000000000000e+00 0.000000000000000e+00
5.000000000000000e-01 1.000000000000000e+00 5.000000000000000e-01
5.000000000000000e-01 5.000000000000000e-01 0.000000000000000e+00
5.000000000000000e-01 1.000000000000000e+00 0.000000000000000e+00
7.500000000000000e-01 1.000000000000000e+00 2.500000000000000e-01
2.500000000000000e-01 1.000000000000000e+00 2.500000000000000e-01
2.500000000000000e-01 7.500000000000000e-01 0.000000000000000e+00
7.500000000000000e-01 7.500000000000000e-01 0.000000000000000e+00
5.000000000000000e-01 7.500000000000000e-01 2.500000000000000e-01
0.000000000000000e+00 1.000000000000000e+00 1.000000000000000e+00
1.000000000000000e+00 1.000000000000000e+00 1.000000000000000e+00
5.000000000000000e-01 5.000000000000000e-01 1.000000000000000e+00
5.000000000000000e-01 1.000000000000000e+00 5.000000000000000e-01
5.000000000000000e-01 1.000000000000000e+00 1.000000000000000e+00
7.500000000000000e-01 7.500000000000000e-01 1.000000000000000e+00
2.500000000000000e-01 7.500000000000000e-01 1.000000000000000e+00
2.500000000000000e-01 1.000000000000000e+00 7.500000000000000e-01
7.500000000000000e-01 1.000000000000000e+00 7.500000000000000e-01
5.000000000000000e-01 7.500000000000000e-01 7.500000000000000e-01
1.000000000000000e+00 0.000000000000000e+00 1.000000000000000e+00
1.000000000000000e+00 0.000000000000000e+00 0.000000000000000e+00
5.000000000000000e-01 0.000000000000000e+00 5.000000000000000e-01
1.000000000000000e+00 5.000000000000000e-01 5.000000000000000e-01
1.000000000000000e+00 0.000000000000000e+00 5.000000000000000e-01
7.500000000000000e-01 0.000000000000000e+00 2.500000000000000e-01
7.500000000000000e-01 0.000000000000000e+00 7.500000000000000e-01
1.000000000000000e+00 2.500000000000000e-01 7.500000000000000e-01
1.000000000000000e+00 2.500000000000000e-01 2.500000000000000e-01
7.500000000000000e-01 2.500000000000000e-01 5.000000000000000e-01
1.000000000000000e+00 0.000000000000000e+00 0.000000000000000e+00
1.000000000000000e+00 1.000000000000000e+00 0.000000000000000e+00
5.000000000000000e-01 5.000000000000000e-01 0.000000000000000e+00
1.000000000000000e+00 5.000000000000000e-01 5.000000000000000e-01
1.000000000000000e+00 5.000000000000000e-01 0.000000000000000e+00
7.500000000000000e-01 7.500000000000000e-01 0.000000000000000e+00
7.500000000000000e-01 2.500000000000000e-01 0.000000000000000e+00
1.000000000000000e+00 2.500000000000000e-01 2.500000000000000e-01
1.000000000000000e+00 7.500000000000000e-01 2.500000000000000e-01
7.500000000000000e-01 5.000000000000000e-01 2.500000000000000e-01
1.000000000000000e+00 1.000000000000000e+00 0.000000000000000e+00
1.000000000000000e+00 1.000000000000000e+00 1.000000000000000e+00
5.000000000000000e-01 1.000000000000000e+00 5.000000000000000e-01
1.000000000000000e+00 5.000000000000000e-01 5.000000000000000e-01
1.000000000000000e+00 1.000000000000000e+00 5.000000000000000e-01
7.500000000000000e-01 1.000000000000000e+00 7.500000000000000e-01
7.500000000000000e-01 1.000000000000000e+00 2.500000000000000e-01
1.000000000000000e+00 7.500000000000000e-01 2.500000000000000e-01
1.000000000000000e+00 7.500000000000000e-01 7.500000000000000e-01
7.500000000000000e-01 7.500000000000000e-01 5.000000000000000e-01
1.000000000000000e+00 1.000000000000000e+00 1.000000000000000e+00
1.000000000000000e+00 0.000000000000000e+00 1.000000000000000e+00
5.000000000000000e-01 5.000000000000000e-01 1.000000000000000e+00
1.000000000000000e+00 5.000000000000000e-01 5.000000000000000e-01
1.000000000000000e+00 5.000000000000000e-01 1.000000000000000e+00
7.500000000000000e-01 2.500000000000000e-01 1.000000000000000e+00
7.500000000000000e-01 7.500000000000000e-01 1.000000000000000e+00
1.000000000000000e+00 7.500000000000000e-01 7.500000000000000e-01
1.000000000000000e+00 2.500000000000000e-01 7.500000000000000e-01
7.500000000000000e-01 5.000000000000000e-01 7.500000000000000e-01
0.000000000000000e+00 5.000000000000000e-01 5.000000000000000e-01
5.000000000000000e-01 0.000000000000000e+00 5.000000000000000e-01
5.000000000000000e-01 5.000000000000000e-01 1.000000000000000e+00
0.000000000000000e+00 0.000000000000000e+00 1.000000000000000e+00
2.500000000000000e-01 2.500000000000000e-01 5.000000000000000e-01
5.000000000000000e-01 2.500000000000000e-01 7.500000000000000e-01
2.500000000000000e-01 5.000000000000000e-01 7.500000000000000e-01
0.000000000000000e+00 2.500000000000000e-01 7.500000000000000e-01
2.500000000000000e-01 0.000000000000000e+00 7.500000000000000e-01
2.500000000000000e-01 2.500000000000000e-01 1.000000000000000e+00
0.000000000000000e+00 5.000000000000000e-01 5.000000000000000e-01
5.000000000000000e-01 5.000000000000000e-01 0.000000000000000e+00
5.000000000000000e-01 0.000000000000000e+00 5.000000000000000e-01
0.000000000000000e+00 0.000000000000000e+00 0.000000000000000e+00
2.500000000000000e-01 5.000000000000000e-01 2.500000000000000e-01
5.000000000000000e-01 2.500000000000000e-01 2.500000000000000e-01
2.500000000000000e-01 2.500000000000000e-01 5.000000000000000e-01
0.000000000000000e+00 2.500000000000000e-01 2.500000000000000e-01
2.500000000000000e-01 2.500000000000000e-01 0.000000000000000e+00
2.500000000000000e-01 0.000000000000000e+00 2.500000000000000e-01
0.000000000000000e+00 5.000000000000000e-01 5.000000000000000e-01
5.000000000000000e-01 1.000000000000000e+00 5.000000000000000e-01
5.000000000000000e-01 5.000000000000000e-01 0.000000000000000e+00
0.000000000000000e+00 1.000000000000000e+00 0.000000000000000e+00
[...]
  <PointData>
        <DataArray type="Float64" Name="displacement" NumberOfComponents="3" format="ascii">
0.000000000000000e+00 0.000000000000000e+00 0.000000000000000e+00
0.000000000000000e+00 0.000000000000000e+00 0.000000000000000e+00
0.000000000000000e+00 0.000000000000000e+00 0.000000000000000e+00
2.892790664939237e-02 -4.005722268587802e-04 -7.852596784737411e-04
0.000000000000000e+00 0.000000000000000e+00 0.000000000000000e+00
0.000000000000000e+00 0.000000000000000e+00 0.000000000000000e+00
0.000000000000000e+00 0.000000000000000e+00 0.000000000000000e+00
1.491122404740366e-02 -9.988717687408770e-05 -1.909005317598481e-04
1.403441056253839e-02 -9.812111668114469e-05 -1.909137469749343e-04
1.467327674236883e-02 -9.761617153726655e-05 -1.882219618832899e-04
0.000000000000000e+00 0.000000000000000e+00 0.000000000000000e+00
0.000000000000000e+00 0.000000000000000e+00 0.000000000000000e+00
0.000000000000000e+00 0.000000000000000e+00 0.000000000000000e+00
2.807585784147091e-02 -3.914529977184296e-04 -7.982748462282619e-04
0.000000000000000e+00 0.000000000000000e+00 0.000000000000000e+00
0.000000000000000e+00 0.000000000000000e+00 0.000000000000000e+00
0.000000000000000e+00 0.000000000000000e+00 0.000000000000000e+00
1.383619923856820e-02 -9.731431258639717e-05 -1.960527451210297e-04
1.427426651537593e-02 -9.263565255494436e-05 -1.977841827432589e-04
1.445594278942430e-02 -9.371815675025492e-05 -1.945244289961412e-04
0.000000000000000e+00 0.000000000000000e+00 0.000000000000000e+00
0.000000000000000e+00 0.000000000000000e+00 0.000000000000000e+00
0.000000000000000e+00 0.000000000000000e+00 0.000000000000000e+00
3.063397500740241e-02 -4.027556459929718e-04 -7.899577862764283e-04
0.000000000000000e+00 0.000000000000000e+00 0.000000000000000e+00
0.000000000000000e+00 0.000000000000000e+00 0.000000000000000e+00
0.000000000000000e+00 0.000000000000000e+00 0.000000000000000e+00
1.487013440512627e-02 -9.908702985957488e-05 -1.901363039854322e-04
1.574828789965809e-02 -1.007424136763236e-04 -1.954941499338728e-04
1.510818096097358e-02 -9.819240118850242e-05 -1.897917821785609e-04
0.000000000000000e+00 0.000000000000000e+00 0.000000000000000e+00
0.000000000000000e+00 0.000000000000000e+00 0.000000000000000e+00
0.000000000000000e+00 0.000000000000000e+00 0.000000000000000e+00
3.148800123929545e-02 -3.961511715180613e-04 -8.084084413364463e-04
0.000000000000000e+00 0.000000000000000e+00 0.000000000000000e+00
0.000000000000000e+00 0.000000000000000e+00 0.000000000000000e+00
0.000000000000000e+00 0.000000000000000e+00 0.000000000000000e+00
1.594773651555849e-02 -9.990029692057408e-05 -2.017720903835168e-04
1.550832924474478e-02 -9.386595403746700e-05 -2.000821374511885e-04
1.532575620731103e-02 -9.528800012541212e-05 -1.970990908104453e-04
0.000000000000000e+00 0.000000000000000e+00 0.000000000000000e+00
6.141185144933375e-02 -1.668086400961507e-03 -3.341439591068816e-03
2.892790664939237e-02 -4.005722268587802e-04 -7.852596784737411e-04
3.148800123929545e-02 -3.961511715180613e-04 -8.084084413364463e-04
3.063958613812216e-02 -4.003424373277979e-04 -7.971526979432139e-04
4.471220953903215e-02 -9.099248481671316e-04 -1.825679415414843e-03
1.491122404740366e-02 -9.988717687408770e-05 -1.909005317598481e-04
1.550832924474478e-02 -9.386595403746700e-05 -2.000821374511885e-04
4.663973934623183e-02 -9.184054709900892e-04 -1.835191978237692e-03
3.022423605323683e-02 -3.978513467373002e-04 -7.956406263334175e-04
0.000000000000000e+00 0.000000000000000e+00 0.000000000000000e+00
5.398883776318446e-02 -1.660213276287549e-03 -3.312006176065958e-03
2.807585784147091e-02 -3.914529977184296e-04 -7.982748462282619e-04
2.892790664939237e-02 -4.005722268587802e-04 -7.852596784737411e-04
2.720755849131111e-02 -3.908897145215668e-04 -7.850527736845237e-04
4.133071699554262e-02 -9.029229560883725e-04 -1.822176117032186e-03
1.383619923856820e-02 -9.731431258639717e-05 -1.960527451210297e-04
1.403441056253839e-02 -9.812111668114469e-05 -1.909137469749343e-04
4.197204661487292e-02 -9.174045151849045e-04 -1.811802146374824e-03
2.845110921904487e-02 -3.954766078817040e-04 -7.901960893199065e-04
0.000000000000000e+00 0.000000000000000e+00 0.000000000000000e+00
5.770106971879544e-02 -1.657145600081119e-03 -3.325298946779367e-03
3.063397500740241e-02 -4.027556459929718e-04 -7.899577862764283e-04
2.807585784147091e-02 -3.914529977184296e-04 -7.982748462282619e-04
2.892241945521685e-02 -3.971798605825111e-04 -7.927848061025166e-04
4.462622905277556e-02 -9.077464483831496e-04 -1.824907878411598e-03
1.487013440512627e-02 -9.908702985957488e-05 -1.901363039854322e-04
1.427426651537593e-02 -9.263565255494436e-05 -1.977841827432589e-04
4.270046157669012e-02 -9.104352974833454e-04 -1.821935622369625e-03
2.933750045926320e-02 -3.955491236124729e-04 -7.932604629696579e-04
0.000000000000000e+00 0.000000000000000e+00 0.000000000000000e+00
6.512086748741103e-02 -1.686762043448414e-03 -3.365634727370628e-03
3.148800123929545e-02 -3.961511715180613e-04 -8.084084413364463e-04
3.063397500740241e-02 -4.027556459929718e-04 -7.899577862764283e-04
3.235897658350440e-02 -3.998359066919952e-04 -8.015291225155128e-04
4.801070608527711e-02 -9.164770636969829e-04 -1.849500368489644e-03
1.594773651555849e-02 -9.990029692057408e-05 -2.017720903835168e-04
1.574828789965809e-02 -1.007424136763236e-04 -1.954941499338728e-04
4.736761424593786e-02 -9.292944514290816e-04 -1.834097459854120e-03
3.111128666909125e-02 -4.007179386666472e-04 -8.001197194123348e-04
6.141185144933375e-02 -1.668086400961507e-03 -3.341439591068816e-03
5.398883776318446e-02 -1.660213276287549e-03 -3.312006176065958e-03
2.892790664939237e-02 -4.005722268587802e-04 -7.852596784737411e-04
5.955332630158334e-02 -1.650347292300374e-03 -3.300740677917246e-03
5.772175292991857e-02 -1.653465268631574e-03 -3.291696185025330e-03
4.197204661487292e-02 -9.174045151849045e-04 -1.811802146374824e-03
4.471220953903215e-02 -9.099248481671316e-04 -1.825679415414843e-03
6.051139867957438e-02 -1.659966236756927e-03 -3.319563335849547e-03
5.668187871490932e-02 -1.649738458996871e-03 -3.299124302852850e-03
4.398362838378446e-02 -9.094400854394349e-04 -1.810469976736712e-03
5.398883776318446e-02 -1.660213276287549e-03 -3.312006176065958e-03
5.770106971879544e-02 -1.657145600081119e-03 -3.325298946779367e-03
2.807585784147091e-02 -3.914529977184296e-04 -7.982748462282619e-04
5.955332630158334e-02 -1.650347292300374e-03 -3.300740677917246e-03
5.589100588558898e-02 -1.641207058588568e-03 -3.298178296917599e-03
4.270046157669012e-02 -9.104352974833454e-04 -1.821935622369625e-03
4.133071699554262e-02 -9.029229560883725e-04 -1.822176117032186e-03
5.668187871490932e-02 -1.649738458996871e-03 -3.299124302852850e-03
5.859767626961070e-02 -1.653568087670211e-03 -3.310250047434280e-03
4.329915474775183e-02 -9.034299429196343e-04 -1.815952071457790e-03
5.770106971879544e-02 -1.657145600081119e-03 -3.325298946779367e-03
6.512086748741103e-02 -1.686762043448414e-03 -3.365634727370628e-03
3.063397500740241e-02 -4.027556459929718e-04 -7.899577862764283e-04
5.955332630158334e-02 -1.650347292300374e-03 -3.300740677917246e-03
6.138626289755911e-02 -1.663357385316802e-03 -3.310287531108216e-03
4.736761424593786e-02 -9.292944514290816e-04 -1.834097459854120e-03
4.462622905277556e-02 -9.077464483831496e-04 -1.824907878411598e-03
5.859767626961070e-02 -1.653568087670211e-03 -3.310250047434280e-03
6.242303973311519e-02 -1.667369529289658e-03 -3.332466852331832e-03
4.535333004036916e-02 -9.124905964525779e-04 -1.817667351229574e-03
6.512086748741103e-02 -1.686762043448414e-03 -3.365634727370628e-03
6.141185144933375e-02 -1.668086400961507e-03 -3.341439591068816e-03
3.148800123929545e-02 -3.961511715180613e-04 -8.084084413364463e-04
5.955332630158334e-02 -1.650347292300374e-03 -3.300740677917246e-03
6.321999598056370e-02 -1.659798124109134e-03 -3.335568642396390e-03
4.663973934623183e-02 -9.184054709900892e-04 -1.835191978237692e-03
4.801070608527711e-02 -9.164770636969829e-04 -1.849500368489644e-03
6.242303973311519e-02 -1.667369529289658e-03 -3.332466852331832e-03
6.051139867957438e-02 -1.659966236756927e-03 -3.319563335849547e-03
4.603856174188506e-02 -9.106272940874738e-04 -1.827961599655784e-03
0.000000000000000e+00 0.000000000000000e+00 0.000000000000000e+00
2.892790664939237e-02 -4.005722268587802e-04 -7.852596784737411e-04
3.148800123929545e-02 -3.961511715180613e-04 -8.084084413364463e-04
0.000000000000000e+00 0.000000000000000e+00 0.000000000000000e+00
1.467327674236883e-02 -9.761617153726655e-05 -1.882219618832899e-04
3.022423605323683e-02 -3.978513467373002e-04 -7.956406263334175e-04
1.532575620731103e-02 -9.528800012541212e-05 -1.970990908104453e-04
0.000000000000000e+00 0.000000000000000e+00 0.000000000000000e+00
1.491122404740366e-02 -9.988717687408770e-05 -1.909005317598481e-04
1.550832924474478e-02 -9.386595403746700e-05 -2.000821374511885e-04
0.000000000000000e+00 0.000000000000000e+00 0.000000000000000e+00
2.807585784147091e-02 -3.914529977184296e-04 -7.982748462282619e-04
2.892790664939237e-02 -4.005722268587802e-04 -7.852596784737411e-04
0.000000000000000e+00 0.000000000000000e+00 0.000000000000000e+00
1.445594278942430e-02 -9.371815675025492e-05 -1.945244289961412e-04
2.845110921904487e-02 -3.954766078817040e-04 -7.901960893199065e-04
1.467327674236883e-02 -9.761617153726655e-05 -1.882219618832899e-04
0.000000000000000e+00 0.000000000000000e+00 0.000000000000000e+00
1.383619923856820e-02 -9.731431258639717e-05 -1.960527451210297e-04
1.403441056253839e-02 -9.812111668114469e-05 -1.909137469749343e-04
0.000000000000000e+00 0.000000000000000e+00 0.000000000000000e+00
3.063397500740241e-02 -4.027556459929718e-04 -7.899577862764283e-04
2.807585784147091e-02 -3.914529977184296e-04 -7.982748462282619e-04
0.000000000000000e+00 0.000000000000000e+00 0.000000000000000e+00
1.510818096097358e-02 -9.819240118850242e-05 -1.897917821785609e-04
2.933750045926320e-02 -3.955491236124729e-04 -7.932604629696579e-04
1.445594278942430e-02 -9.371815675025492e-05 -1.945244289961412e-04
0.000000000000000e+00 0.000000000000000e+00 0.000000000000000e+00
1.487013440512627e-02 -9.908702985957488e-05 -1.901363039854322e-04
1.427426651537593e-02 -9.263565255494436e-05 -1.977841827432589e-04
0.000000000000000e+00 0.000000000000000e+00 0.000000000000000e+00
3.148800123929545e-02 -3.961511715180613e-04 -8.084084413364463e-04
3.063397500740241e-02 -4.027556459929718e-04 -7.899577862764283e-04
0.000000000000000e+00 0.000000000000000e+00 0.000000000000000e+00
1.532575620731103e-02 -9.528800012541212e-05 -1.970990908104453e-04
3.111128666909125e-02 -4.007179386666472e-04 -8.001197194123348e-04
1.510818096097358e-02 -9.819240118850242e-05 -1.897917821785609e-04
0.000000000000000e+00 0.000000000000000e+00 0.000000000000000e+00
1.594773651555849e-02 -9.990029692057408e-05 -2.017720903835168e-04
1.574828789965809e-02 -1.007424136763236e-04 -1.954941499338728e-04
5.955332630158334e-02 -1.650347292300374e-03 -3.300740677917246e-03
3.148800123929545e-02 -3.961511715180613e-04 -8.084084413364463e-04
2.892790664939237e-02 -4.005722268587802e-04 -7.852596784737411e-04
6.141185144933375e-02 -1.668086400961507e-03 -3.341439591068816e-03
4.603856174188506e-02 -9.106272940874738e-04 -1.827961599655784e-03
3.022423605323683e-02 -3.978513467373002e-04 -7.956406263334175e-04
4.398362838378446e-02 -9.094400854394349e-04 -1.810469976736712e-03
6.051139867957438e-02 -1.659966236756927e-03 -3.319563335849547e-03
4.663973934623183e-02 -9.184054709900892e-04 -1.835191978237692e-03
4.471220953903215e-02 -9.099248481671316e-04 -1.825679415414843e-03
5.955332630158334e-02 -1.650347292300374e-03 -3.300740677917246e-03
2.892790664939237e-02 -4.005722268587802e-04 -7.852596784737411e-04
2.807585784147091e-02 -3.914529977184296e-04 -7.982748462282619e-04
5.398883776318446e-02 -1.660213276287549e-03 -3.312006176065958e-03
4.398362838378446e-02 -9.094400854394349e-04 -1.810469976736712e-03
2.845110921904487e-02 -3.954766078817040e-04 -7.901960893199065e-04
4.329915474775183e-02 -9.034299429196343e-04 -1.815952071457790e-03
5.668187871490932e-02 -1.649738458996871e-03 -3.299124302852850e-03
4.197204661487292e-02 -9.174045151849045e-04 -1.811802146374824e-03
4.133071699554262e-02 -9.029229560883725e-04 -1.822176117032186e-03
5.955332630158334e-02 -1.650347292300374e-03 -3.300740677917246e-03
2.807585784147091e-02 -3.914529977184296e-04 -7.982748462282619e-04
3.063397500740241e-02 -4.027556459929718e-04 -7.899577862764283e-04
5.770106971879544e-02 -1.657145600081119e-03 -3.325298946779367e-03
4.329915474775183e-02 -9.034299429196343e-04 -1.815952071457790e-03
2.933750045926320e-02 -3.955491236124729e-04 -7.932604629696579e-04
4.535333004036916e-02 -9.124905964525779e-04 -1.817667351229574e-03
5.859767626961070e-02 -1.653568087670211e-03 -3.310250047434280e-03
4.270046157669012e-02 -9.104352974833454e-04 -1.821935622369625e-03
4.462622905277556e-02 -9.077464483831496e-04 -1.824907878411598e-03
5.955332630158334e-02 -1.650347292300374e-03 -3.300740677917246e-03
3.063397500740241e-02 -4.027556459929718e-04 -7.899577862764283e-04
3.148800123929545e-02 -3.961511715180613e-04 -8.084084413364463e-04
6.512086748741103e-02 -1.686762043448414e-03 -3.365634727370628e-03
4.535333004036916e-02 -9.124905964525779e-04 -1.817667351229574e-03
3.111128666909125e-02 -4.007179386666472e-04 -8.001197194123348e-04
4.603856174188506e-02 -9.106272940874738e-04 -1.827961599655784e-03
6.242303973311519e-02 -1.667369529289658e-03 -3.332466852331832e-03
4.736761424593786e-02 -9.292944514290816e-04 -1.834097459854120e-03
4.801070608527711e-02 -9.164770636969829e-04 -1.849500368489644e-03
0.000000000000000e+00 0.000000000000000e+00 0.000000000000000e+00
3.148800123929545e-02 -3.961511715180613e-04 -8.084084413364463e-04
2.892790664939237e-02 -4.005722268587802e-04 -7.852596784737411e-04
2.978052735907552e-02 -3.950791040625927e-04 -7.901652473219792e-04
1.532575620731103e-02 -9.528800012541212e-05 -1.970990908104453e-04
3.022423605323683e-02 -3.978513467373002e-04 -7.956406263334175e-04
1.467327674236883e-02 -9.761617153726655e-05 -1.882219618832899e-04
1.489073719862747e-02 -9.556714427111704e-05 -1.911355250660077e-04
3.066752577188690e-02 -3.967489997544019e-04 -7.962824907151309e-04
2.933728842902109e-02 -3.958947324462778e-04 -7.879845056433495e-04
0.000000000000000e+00 0.000000000000000e+00 0.000000000000000e+00
2.892790664939237e-02 -4.005722268587802e-04 -7.852596784737411e-04
2.807585784147091e-02 -3.914529977184296e-04 -7.982748462282619e-04
2.978052735907552e-02 -3.950791040625927e-04 -7.901652473219792e-04
1.467327674236883e-02 -9.761617153726655e-05 -1.882219618832899e-04
2.845110921904487e-02 -3.954766078817040e-04 -7.901960893199065e-04
1.445594278942430e-02 -9.371815675025492e-05 -1.945244289961412e-04
1.489073719862747e-02 -9.556714427111704e-05 -1.911355250660077e-04
2.933728842902109e-02 -3.958947324462778e-04 -7.879845056433495e-04
2.889420885553711e-02 -3.930696183339570e-04 -7.901732602825865e-04
0.000000000000000e+00 0.000000000000000e+00 0.000000000000000e+00
2.807585784147091e-02 -3.914529977184296e-04 -7.982748462282619e-04
3.063397500740241e-02 -4.027556459929718e-04 -7.899577862764283e-04
2.978052735907552e-02 -3.950791040625927e-04 -7.901652473219792e-04
1.445594278942430e-02 -9.371815675025492e-05 -1.945244289961412e-04
2.933750045926320e-02 -3.955491236124729e-04 -7.932604629696579e-04
1.510818096097358e-02 -9.819240118850242e-05 -1.897917821785609e-04
1.489073719862747e-02 -9.556714427111704e-05 -1.911355250660077e-04
2.889420885553711e-02 -3.930696183339570e-04 -7.901732602825865e-04
3.022394324300998e-02 -3.973242513077161e-04 -7.916638584967905e-04
0.000000000000000e+00 0.000000000000000e+00 0.000000000000000e+00
3.063397500740241e-02 -4.027556459929718e-04 -7.899577862764283e-04
3.148800123929545e-02 -3.961511715180613e-04 -8.084084413364463e-04
2.978052735907552e-02 -3.950791040625927e-04 -7.901652473219792e-04
1.510818096097358e-02 -9.819240118850242e-05 -1.897917821785609e-04
3.111128666909125e-02 -4.007179386666472e-04 -8.001197194123348e-04
1.532575620731103e-02 -9.528800012541212e-05 -1.970990908104453e-04
1.489073719862747e-02 -9.556714427111704e-05 -1.911355250660077e-04
3.022394324300998e-02 -3.973242513077161e-04 -7.916638584967905e-04
3.066752577188690e-02 -3.967489997544019e-04 -7.962824907151309e-04
5.955332630158334e-02 -1.650347292300374e-03 -3.300740677917246e-03
2.892790664939237e-02 -4.005722268587802e-04 -7.852596784737411e-04
3.148800123929545e-02 -3.961511715180613e-04 -8.084084413364463e-04
2.978052735907552e-02 -3.950791040625927e-04 -7.901652473219792e-04
4.398362838378446e-02 -9.094400854394349e-04 -1.810469976736712e-03
3.022423605323683e-02 -3.978513467373002e-04 -7.956406263334175e-04
4.603856174188506e-02 -9.106272940874738e-04 -1.827961599655784e-03
4.466840471456133e-02 -9.097853057105297e-04 -1.819592153615228e-03
2.933728842902109e-02 -3.958947324462778e-04 -7.879845056433495e-04
3.066752577188690e-02 -3.967489997544019e-04 -7.962824907151309e-04
5.955332630158334e-02 -1.650347292300374e-03 -3.300740677917246e-03
2.807585784147091e-02 -3.914529977184296e-04 -7.982748462282619e-04
2.892790664939237e-02 -4.005722268587802e-04 -7.852596784737411e-04
2.978052735907552e-02 -3.950791040625927e-04 -7.901652473219792e-04
4.329915474775183e-02 -9.034299429196343e-04 -1.815952071457790e-03
2.845110921904487e-02 -3.954766078817040e-04 -7.901960893199065e-04
4.398362838378446e-02 -9.094400854394349e-04 -1.810469976736712e-03
4.466840471456133e-02 -9.097853057105297e-04 -1.819592153615228e-03
2.889420885553711e-02 -3.930696183339570e-04 -7.901732602825865e-04
2.933728842902109e-02 -3.958947324462778e-04 -7.879845056433495e-04
5.955332630158334e-02 -1.650347292300374e-03 -3.300740677917246e-03
3.063397500740241e-02 -4.027556459929718e-04 -7.899577862764283e-04
2.807585784147091e-02 -3.914529977184296e-04 -7.982748462282619e-04
2.978052735907552e-02 -3.950791040625927e-04 -7.901652473219792e-04
4.535333004036916e-02 -9.124905964525779e-04 -1.817667351229574e-03
2.933750045926320e-02 -3.955491236124729e-04 -7.932604629696579e-04
4.329915474775183e-02 -9.034299429196343e-04 -1.815952071457790e-03
4.466840471456133e-02 -9.097853057105297e-04 -1.819592153615228e-03
3.022394324300998e-02 -3.973242513077161e-04 -7.916638584967905e-04
2.889420885553711e-02 -3.930696183339570e-04 -7.901732602825865e-04
5.955332630158334e-02 -1.650347292300374e-03 -3.300740677917246e-03
3.148800123929545e-02 -3.961511715180613e-04 -8.084084413364463e-04
3.063397500740241e-02 -4.027556459929718e-04 -7.899577862764283e-04
2.978052735907552e-02 -3.950791040625927e-04 -7.901652473219792e-04
4.603856174188506e-02 -9.106272940874738e-04 -1.827961599655784e-03
3.111128666909125e-02 -4.007179386666472e-04 -8.001197194123348e-04
4.535333004036916e-02 -9.124905964525779e-04 -1.817667351229574e-03
4.466840471456133e-02 -9.097853057105297e-04 -1.819592153615228e-03
3.066752577188690e-02 -3.967489997544019e-04 -7.962824907151309e-04
3.022394324300998e-02 -3.973242513077161e-04 -7.916638584967905e-04
6.141185144933375e-02 -1.668086400961507e-03 -3.341439591068816e-03
5.398883776318446e-02 -1.660213276287549e-03 -3.312006176065958e-03
5.955332630158334e-02 -1.650347292300374e-03 -3.300740677917246e-03
8.620552850203909e-02 -3.959435794067080e-03 -7.896576598005529e-03
5.772175292991857e-02 -1.653465268631574e-03 -3.291696185025330e-03
5.668187871490932e-02 -1.649738458996871e-03 -3.299124302852850e-03
6.051139867957438e-02 -1.659966236756927e-03 -3.319563335849547e-03
7.453653231734345e-02 -2.666167524209890e-03 -5.318116416363807e-03
6.946459506690975e-02 -2.645608595724145e-03 -5.288643126425719e-03
7.317462457976860e-02 -2.654268426801258e-03 -5.295978687938127e-03
5.398883776318446e-02 -1.660213276287549e-03 -3.312006176065958e-03
5.770106971879544e-02 -1.657145600081119e-03 -3.325298946779367e-03
5.955332630158334e-02 -1.650347292300374e-03 -3.300740677917246e-03