<?xml version="1.0" ?> 
<!-- 
# vtk DataFile Version 3.0
-->
<VTKFile type="UnstructuredGrid" version="0.1" compressor="vtkZLibDataCompressor" byte_order="LittleEndian">
  <UnstructuredGrid>
    <FieldData>
      <DataArray type="Float64" Name="TIME" NumberOfTuples="1" format="ascii">
2.500000000000002e-01 
      </DataArray>
    </FieldData>

    <Piece NumberOfPoints="252" NumberOfCells="0" >
      <Points>
        <DataArray type="Float64" NumberOfComponents="3" format="ascii">
-4.497077501849364e-01 -4.497077501849365e-01 9.703936634920752e-01
-4.498498144880124e-01 -3.490528065131990e-01 9.717055505929715e-01
-4.499107798451030e-01 -2.488701876033026e-01 9.730159887609271e-01
-3.490528065131991e-01 -4.498498144880123e-01 9.717055505929714e-01
-3.493236085264367e-01 -3.493236085264367e-01 9.699927322479459e-01
-3.490693995469402e-01 -2.485990888917941e-01 9.682680985839740e-01
-2.488701876033025e-01 -4.499107798451027e-01 9.730159887609272e-01
-2.485990888917943e-01 -3.490693995469402e-01 9.682680985839742e-01
-2.501517574444065e-01 -2.501517574444065e-01 9.636797453121350e-01
-1.489351518438011e-01 -4.497157808655714e-01 9.743071510297977e-01
-1.485742145707338e-01 -3.488728691879370e-01 9.665445994234052e-01
-1.503980916914547e-01 -2.528904531946193e-01 9.592353196754180e-01
-4.967262425358829e-02 -4.496146490978918e-01 9.755879549813541e-01
-4.949455519713684e-02 -3.487777313309250e-01 9.648364135027676e-01
-4.997258310174942e-02 -2.530897870924836e-01 9.546535596538799e-01
-4.712604070873597e-02 4.627051024810907e-01 9.770263278191147e-01
-4.476299998661185e-02 4.741602135586633e-01 9.783040986743825e-01
4.558273801732271e-01 2.466464220541013e-01 9.733272854911119e-01
4.997258310174953e-02 2.530897870924835e-01 9.546535596538794e-01
4.949455519713697e-02 3.487777313309252e-01 9.648364135027675e-01
3.579603218680716e-01 -1.495131431720337e-01 9.672580849437513e-01
3.673595387465711e-01 -1.504541268389191e-01 9.679903303177845e-01
3.615097808557755e-01 -5.078705729982337e-02 9.662115033202874e-01
3.740880500313111e-01 -5.118453791697757e-02 9.675518802169250e-01
-4.497157808655715e-01 -1.489351518438010e-01 9.743071510297974e-01
-4.496146490978917e-01 -4.967262425358824e-02 9.755879549813540e-01
4.967262425358834e-02 4.496146490978918e-01 9.755879549813539e-01
1.503980916914546e-01 2.528904531946192e-01 9.592353196754178e-01
-3.488728691879372e-01 -1.485742145707338e-01 9.665445994234052e-01
-3.487777313309251e-01 -4.949455519713684e-02 9.648364135027676e-01
1.485742145707339e-01 3.488728691879371e-01 9.665445994234052e-01
1.489351518438013e-01 4.497157808655712e-01 9.743071510297973e-01
-2.528904531946194e-01 -1.503980916914546e-01 9.592353196754180e-01
-2.530897870924837e-01 -4.997258310174953e-02 9.546535596538797e-01
4.592082503638423e-01 -1.466300380461523e-01 9.750738031540995e-01
4.676538560858443e-01 -1.445336002863128e-01 9.757677421030428e-01
4.627051024810906e-01 -4.712604070873586e-02 9.770263278191148e-01
4.741602135586634e-01 -4.476299998661162e-02 9.783040986743827e-01
2.501517574444065e-01 2.501517574444066e-01 9.636797453121349e-01
2.485990888917943e-01 3.490693995469401e-01 9.682680985839739e-01
2.488701876033027e-01 4.499107798451029e-01 9.730159887609269e-01
3.490693995469404e-01 2.485990888917943e-01 9.682680985839742e-01
3.493236085264368e-01 3.493236085264367e-01 9.699927322479456e-01
3.490528065131990e-01 4.498498144880124e-01 9.717055505929713e-01
4.499107798451029e-01 2.488701876033026e-01 9.730159887609270e-01
4.498498144880123e-01 3.490528065131990e-01 9.717055505929715e-01
4.967262425358840e-02 -4.496146490978917e-01 9.755879549813540e-01
4.949455519713705e-02 -3.487777313309250e-01 9.648364135027674e-01
4.997258310174964e-02 -2.530897870924836e-01 9.546535596538797e-01
1.489351518438013e-01 -4.497157808655713e-01 9.743071510297974e-01
1.485742145707341e-01 -3.488728691879373e-01 9.665445994234053e-01
1.503980916914548e-01 -2.528904531946193e-01 9.592353196754180e-01
2.488701876033027e-01 -4.499107798451027e-01 9.730159887609270e-01
2.485990888917943e-01 -3.490693995469402e-01 9.682680985839740e-01
2.501517574444067e-01 -2.501517574444064e-01 9.636797453121350e-01
3.490528065131991e-01 -4.498498144880123e-01 9.717055505929711e-01
3.493236085264368e-01 -3.493236085264366e-01 9.699927322479457e-01
3.490693995469403e-01 -2.485990888917941e-01 9.682680985839740e-01
4.497077501849364e-01 -4.497077501849364e-01 9.703936634920748e-01
4.498498144880123e-01 -3.490528065131989e-01 9.717055505929711e-01
4.499107798451029e-01 -2.488701876033026e-01 9.730159887609270e-01
4.497077501849363e-01 4.497077501849364e-01 9.703936634920749e-01
4.611552660263496e-01 2.449141669945896e-01 9.736098990599211e-01
4.519083273239771e-01 3.470722867849569e-01 9.717677873080439e-01
4.539305347730831e-01 3.455986884831837e-01 9.718245638633531e-01
4.477372440081223e-01 4.477372440081223e-01 9.704437727782560e-01
4.466433940354232e-01 4.466433940354234e-01 9.704705868404903e-01
5.676053283601347e-02 2.632712469106435e-01 9.560279738031012e-01
6.088794696083893e-02 2.741835622860291e-01 9.573309263992440e-01
-4.477372440081225e-01 -4.477372440081223e-01 9.704437727782562e-01
-4.466433940354234e-01 -4.466433940354235e-01 9.704705868404903e-01
-4.519083273239770e-01 -3.470722867849571e-01 9.717677873080441e-01
-4.539305347730831e-01 -3.455986884831839e-01 9.718245638633534e-01
-4.558273801732271e-01 -2.466464220541013e-01 9.733272854911121e-01
-4.611552660263496e-01 -2.449141669945897e-01 9.736098990599211e-01
-3.470722867849569e-01 -4.519083273239771e-01 9.717677873080440e-01
-3.455986884831838e-01 -4.539305347730831e-01 9.718245638633534e-01
-3.507925218536896e-01 -3.507925218536897e-01 9.700420400806449e-01
-3.529302666081494e-01 -3.529302666081496e-01 9.701114937875954e-01
-3.543569225795981e-01 -2.497158321448252e-01 9.685345433902375e-01
-3.603387939495819e-01 -2.511812958437336e-01 9.688344909152619e-01
-2.466464220541012e-01 -4.558273801732271e-01 9.733272854911120e-01
-2.449141669945896e-01 -4.611552660263496e-01 9.736098990599211e-01
-2.497158321448250e-01 -3.543569225795979e-01 9.685345433902375e-01
-2.511812958437334e-01 -3.603387939495820e-01 9.688344909152617e-01
-2.558031235818902e-01 -2.558031235818902e-01 9.641975105728321e-01
-2.613821622296031e-01 -2.613821622296031e-01 9.646899168586478e-01
-1.466300380461523e-01 -4.592082503638426e-01 9.750738031540996e-01
-1.445336002863129e-01 -4.676538560858443e-01 9.757677421030431e-01
-1.495131431720338e-01 -3.579603218680718e-01 9.672580849437513e-01
-1.504541268389192e-01 -3.673595387465712e-01 9.679903303177846e-01
-1.558554921504623e-01 -2.596570574646874e-01 9.599919141356239e-01
-1.609546506265433e-01 -2.677838059484636e-01 9.608111848342248e-01
-4.712604070873580e-02 -4.627051024810906e-01 9.770263278191147e-01
-4.476299998661160e-02 -4.741602135586633e-01 9.783040986743826e-01
-5.078705729982336e-02 -3.615097808557755e-01 9.662115033202875e-01
-5.118453791697769e-02 -3.740880500313112e-01 9.675518802169250e-01
-5.676053283601343e-02 -2.632712469106438e-01 9.560279738031013e-01
-6.088794696083880e-02 -2.741835622860296e-01 9.573309263992442e-01
5.078705729982352e-02 3.615097808557756e-01 9.662115033202874e-01
5.118453791697775e-02 3.740880500313110e-01 9.675518802169247e-01
4.712604070873599e-02 4.627051024810908e-01 9.770263278191147e-01
4.476299998661179e-02 4.741602135586634e-01 9.783040986743824e-01
1.558554921504622e-01 2.596570574646872e-01 9.599919141356239e-01
1.609546506265433e-01 2.677838059484632e-01 9.608111848342245e-01
-4.592082503638426e-01 -1.466300380461523e-01 9.750738031540996e-01
-4.676538560858443e-01 -1.445336002863129e-01 9.757677421030431e-01
-4.627051024810906e-01 -4.712604070873588e-02 9.770263278191148e-01
-4.741602135586634e-01 -4.476299998661166e-02 9.783040986743826e-01
2.632712469106436e-01 5.676053283601351e-02 9.560279738031012e-01
2.741835622860293e-01 6.088794696083886e-02 9.573309263992440e-01
-3.579603218680719e-01 -1.495131431720338e-01 9.672580849437513e-01
-3.673595387465711e-01 -1.504541268389193e-01 9.679903303177844e-01
-3.615097808557755e-01 -5.078705729982334e-02 9.662115033202874e-01
-3.740880500313111e-01 -5.118453791697768e-02 9.675518802169250e-01
-2.596570574646873e-01 -1.558554921504623e-01 9.599919141356239e-01
-2.677838059484633e-01 -1.609546506265434e-01 9.608111848342247e-01
-2.632712469106437e-01 -5.676053283601348e-02 9.560279738031014e-01
-2.741835622860294e-01 -6.088794696083898e-02 9.573309263992439e-01
2.596570574646873e-01 1.558554921504623e-01 9.599919141356239e-01
2.677838059484633e-01 1.609546506265432e-01 9.608111848342245e-01
1.495131431720338e-01 3.579603218680715e-01 9.672580849437513e-01
2.528904531946193e-01 -1.503980916914546e-01 9.592353196754180e-01
2.530897870924836e-01 -4.997258310174959e-02 9.546535596538797e-01
1.504541268389194e-01 3.673595387465709e-01 9.679903303177844e-01
1.466300380461522e-01 4.592082503638423e-01 9.750738031540994e-01
3.488728691879373e-01 -1.485742145707340e-01 9.665445994234051e-01
3.487777313309251e-01 -4.949455519713693e-02 9.648364135027676e-01
1.445336002863129e-01 4.676538560858442e-01 9.757677421030430e-01
3.615097808557756e-01 5.078705729982348e-02 9.662115033202875e-01
4.497157808655713e-01 -1.489351518438011e-01 9.743071510297974e-01
4.496146490978917e-01 -4.967262425358835e-02 9.755879549813541e-01
3.740880500313111e-01 5.118453791697759e-02 9.675518802169248e-01
3.579603218680717e-01 1.495131431720340e-01 9.672580849437514e-01
3.673595387465709e-01 1.504541268389192e-01 9.679903303177844e-01
2.558031235818902e-01 2.558031235818901e-01 9.641975105728318e-01
-4.496146490978920e-01 4.967262425358832e-02 9.755879549813540e-01
-4.497157808655712e-01 1.489351518438011e-01 9.743071510297974e-01
2.613821622296030e-01 2.613821622296029e-01 9.646899168586476e-01
-3.487777313309250e-01 4.949455519713696e-02 9.648364135027676e-01
-3.488728691879373e-01 1.485742145707338e-01 9.665445994234052e-01
2.497158321448251e-01 3.543569225795978e-01 9.685345433902371e-01
-2.530897870924836e-01 4.997258310174955e-02 9.546535596538795e-01
-2.528904531946192e-01 1.503980916914546e-01 9.592353196754178e-01
2.511812958437335e-01 3.603387939495818e-01 9.688344909152617e-01
2.530897870924835e-01 4.997258310174949e-02 9.546535596538798e-01
2.528904531946193e-01 1.503980916914547e-01 9.592353196754180e-01
4.627051024810906e-01 4.712604070873592e-02 9.770263278191148e-01
4.741602135586633e-01 4.476299998661154e-02 9.783040986743825e-01
3.487777313309252e-01 4.949455519713701e-02 9.648364135027677e-01
3.488728691879370e-01 1.485742145707339e-01 9.665445994234052e-01
4.592082503638423e-01 1.466300380461522e-01 9.750738031540996e-01
4.676538560858443e-01 1.445336002863128e-01 9.757677421030431e-01
4.496146490978917e-01 4.967262425358842e-02 9.755879549813540e-01
4.497157808655712e-01 1.489351518438012e-01 9.743071510297974e-01
2.466464220541013e-01 4.558273801732272e-01 9.733272854911120e-01
4.712604070873588e-02 -4.627051024810906e-01 9.770263278191148e-01
4.476299998661157e-02 -4.741602135586633e-01 9.783040986743826e-01
5.078705729982347e-02 -3.615097808557754e-01 9.662115033202875e-01
5.118453791697755e-02 -3.740880500313112e-01 9.675518802169251e-01
5.676053283601348e-02 -2.632712469106436e-01 9.560279738031014e-01
6.088794696083882e-02 -2.741835622860294e-01 9.573309263992440e-01
1.466300380461521e-01 -4.592082503638424e-01 9.750738031540995e-01
1.445336002863127e-01 -4.676538560858443e-01 9.757677421030431e-01
1.495131431720337e-01 -3.579603218680718e-01 9.672580849437513e-01
1.504541268389191e-01 -3.673595387465710e-01 9.679903303177844e-01
1.558554921504623e-01 -2.596570574646871e-01 9.599919141356239e-01
1.609546506265432e-01 -2.677838059484634e-01 9.608111848342245e-01
2.466464220541012e-01 -4.558273801732272e-01 9.733272854911119e-01
2.449141669945894e-01 -4.611552660263494e-01 9.736098990599210e-01
2.497158321448251e-01 -3.543569225795980e-01 9.685345433902373e-01
-4.499107798451029e-01 2.488701876033026e-01 9.730159887609271e-01
-4.498498144880125e-01 3.490528065131989e-01 9.717055505929714e-01
-4.497077501849365e-01 4.497077501849363e-01 9.703936634920751e-01
-3.490693995469402e-01 2.485990888917942e-01 9.682680985839740e-01
-3.493236085264367e-01 3.493236085264368e-01 9.699927322479458e-01
-3.490528065131990e-01 4.498498144880125e-01 9.717055505929714e-01
-2.501517574444064e-01 2.501517574444064e-01 9.636797453121349e-01
-2.485990888917941e-01 3.490693995469401e-01 9.682680985839740e-01
-2.488701876033025e-01 4.499107798451029e-01 9.730159887609270e-01
-1.503980916914546e-01 2.528904531946192e-01 9.592353196754179e-01
-1.485742145707338e-01 3.488728691879370e-01 9.665445994234050e-01
-1.489351518438011e-01 4.497157808655713e-01 9.743071510297974e-01
-4.997258310174941e-02 2.530897870924835e-01 9.546535596538795e-01
-4.949455519713683e-02 3.487777313309250e-01 9.648364135027674e-01
-4.967262425358834e-02 4.496146490978917e-01 9.755879549813540e-01
2.511812958437334e-01 -3.603387939495821e-01 9.688344909152617e-01
2.558031235818901e-01 -2.558031235818902e-01 9.641975105728320e-01
2.613821622296029e-01 -2.613821622296030e-01 9.646899168586476e-01
3.470722867849569e-01 -4.519083273239771e-01 9.717677873080438e-01
3.455986884831837e-01 -4.539305347730830e-01 9.718245638633530e-01
3.507925218536897e-01 -3.507925218536896e-01 9.700420400806448e-01
3.529302666081493e-01 -3.529302666081494e-01 9.701114937875953e-01
3.543569225795979e-01 -2.497158321448250e-01 9.685345433902373e-01
3.603387939495819e-01 -2.511812958437334e-01 9.688344909152616e-01
4.477372440081221e-01 -4.477372440081223e-01 9.704437727782559e-01
4.466433940354233e-01 -4.466433940354235e-01 9.704705868404903e-01
4.519083273239770e-01 -3.470722867849569e-01 9.717677873080440e-01
4.539305347730830e-01 -3.455986884831836e-01 9.718245638633531e-01
4.558273801732272e-01 -2.466464220541012e-01 9.733272854911119e-01
4.611552660263497e-01 -2.449141669945896e-01 9.736098990599211e-01
2.449141669945896e-01 4.611552660263495e-01 9.736098990599209e-01
-4.627051024810906e-01 4.712604070873605e-02 9.770263278191148e-01
-4.741602135586633e-01 4.476299998661162e-02 9.783040986743826e-01
-4.592082503638426e-01 1.466300380461523e-01 9.750738031540996e-01
-4.676538560858445e-01 1.445336002863128e-01 9.757677421030431e-01
3.543569225795979e-01 2.497158321448250e-01 9.685345433902373e-01
3.603387939495819e-01 2.511812958437336e-01 9.688344909152617e-01
3.507925218536896e-01 3.507925218536897e-01 9.700420400806449e-01
-3.615097808557755e-01 5.078705729982348e-02 9.662115033202874e-01
-3.740880500313112e-01 5.118453791697768e-02 9.675518802169248e-01
-3.579603218680719e-01 1.495131431720337e-01 9.672580849437513e-01
-3.673595387465711e-01 1.504541268389193e-01 9.679903303177845e-01
3.529302666081495e-01 3.529302666081495e-01 9.701114937875953e-01
-2.632712469106436e-01 5.676053283601352e-02 9.560279738031013e-01
-2.741835622860294e-01 6.088794696083893e-02 9.573309263992439e-01
-2.596570574646871e-01 1.558554921504623e-01 9.599919141356239e-01
-2.677838059484632e-01 1.609546506265433e-01 9.608111848342247e-01
3.470722867849571e-01 4.519083273239771e-01 9.717677873080438e-01
3.455986884831838e-01 4.539305347730831e-01 9.718245638633531e-01
2.596570574646873e-01 -1.558554921504624e-01 9.599919141356241e-01
2.677838059484633e-01 -1.609546506265430e-01 9.608111848342245e-01
2.632712469106437e-01 -5.676053283601348e-02 9.560279738031014e-01
2.741835622860295e-01 -6.088794696083868e-02 9.573309263992440e-01
-4.558273801732272e-01 2.466464220541013e-01 9.733272854911121e-01
-4.611552660263497e-01 2.449141669945897e-01 9.736098990599211e-01
-4.519083273239770e-01 3.470722867849571e-01 9.717677873080441e-01
-4.539305347730832e-01 3.455986884831838e-01 9.718245638633531e-01
-4.477372440081224e-01 4.477372440081224e-01 9.704437727782561e-01
-4.466433940354234e-01 4.466433940354234e-01 9.704705868404904e-01
-3.543569225795981e-01 2.497158321448252e-01 9.685345433902375e-01
-3.603387939495820e-01 2.511812958437337e-01 9.688344909152617e-01
-3.507925218536897e-01 3.507925218536897e-01 9.700420400806450e-01
-3.529302666081496e-01 3.529302666081496e-01 9.701114937875954e-01
-3.470722867849571e-01 4.519083273239770e-01 9.717677873080441e-01
-3.455986884831838e-01 4.539305347730831e-01 9.718245638633531e-01
-2.558031235818901e-01 2.558031235818902e-01 9.641975105728320e-01
-2.613821622296031e-01 2.613821622296031e-01 9.646899168586476e-01
-2.497158321448251e-01 3.543569225795979e-01 9.685345433902374e-01
-2.511812958437334e-01 3.603387939495820e-01 9.688344909152617e-01
-2.466464220541013e-01 4.558273801732271e-01 9.733272854911121e-01
-2.449141669945897e-01 4.611552660263495e-01 9.736098990599210e-01
-1.558554921504621e-01 2.596570574646871e-01 9.599919141356239e-01
-1.609546506265431e-01 2.677838059484635e-01 9.608111848342246e-01
-1.495131431720338e-01 3.579603218680718e-01 9.672580849437513e-01
-1.504541268389195e-01 3.673595387465709e-01 9.679903303177845e-01
-1.466300380461523e-01 4.592082503638423e-01 9.750738031540995e-01
-1.445336002863130e-01 4.676538560858444e-01 9.757677421030430e-01
-5.676053283601336e-02 2.632712469106436e-01 9.560279738031014e-01
-6.088794696083886e-02 2.741835622860292e-01 9.573309263992438e-01
-5.078705729982336e-02 3.615097808557755e-01 9.662115033202873e-01
-5.118453791697777e-02 3.740880500313111e-01 9.675518802169248e-01
        </DataArray>
      </Points>

      <Cells>
        <DataArray type="Int32" Name="connectivity" format="ascii">

        </DataArray>
        <DataArray type="Int32" Name="offsets" format="ascii">

        </DataArray>
        <DataArray type="UInt8" Name="types" format="ascii">

        </DataArray>
      </Cells>

  <PointData>
        <DataArray type="Float64" Name="contact force" NumberOfComponents="3" format="ascii">
4.577624064403548e-05 4.577624064408845e-05 3.351660123186850e-04
1.031182885803445e-04 1.127003187768110e-04 3.063420830735472e-04
2.176157121613484e-04 1.334294871368344e-04 3.918886771072193e-04
1.127003187768436e-04 1.031182885803923e-04 3.063420830737581e-04
2.675797317921123e-04 2.675797317920726e-04 7.199504966384425e-04
5.331066699415981e-04 3.294744242516384e-04 9.207095302913742e-04
1.334294871368594e-04 2.176157121613466e-04 3.918886771063744e-04
3.294744242516403e-04 5.331066699415315e-04 9.207095302905506e-04
5.348740218652562e-04 5.348740218652450e-04 4.057127890316210e-03
1.130877604123820e-04 3.899475116092642e-04 3.984048250208147e-04
2.960227569949106e-04 7.423997568653074e-04 1.644093980641310e-03
4.538284441082945e-04 5.758612574502440e-04 6.595847857862067e-03
3.586039480092470e-05 5.355530423572490e-04 3.146063975108966e-04
1.548409512709601e-04 9.268827041067327e-04 2.001138986139662e-03
4.857949740929966e-04 8.507797770272501e-04 9.256010075698101e-03
5.113133372869595e-07 -3.245639399164496e-05 8.097814643913690e-05
-2.446304721039678e-11 -3.618980525924117e-10 1.621765625950152e-09
-1.112905318107050e-05 -5.830991448092715e-06 7.156064056983350e-05
-4.857949740930001e-04 -8.507797770272627e-04 9.256010075698137e-03
-1.548409512709676e-04 -9.268827041067476e-04 2.001138986139509e-03
-2.304562143836176e-05 9.883664657803889e-06 9.965568834571939e-05
-0.000000000000000e+00 -0.000000000000000e+00 -0.000000000000000e+00
-2.649202570727312e-05 4.753601800617388e-06 1.091110036479654e-04
-0.000000000000000e+00 -0.000000000000000e+00 -0.000000000000000e+00
3.899475116093522e-04 1.130877604123784e-04 3.984048250222885e-04
5.355530423572870e-04 3.586039480093759e-05 3.146063975115396e-04
-3.586039480094193e-05 -5.355530423572633e-04 3.146063975108334e-04
-4.538284441082789e-04 -5.758612574502181e-04 6.595847857861345e-03
7.423997568653433e-04 2.960227569949270e-04 1.644093980641507e-03
9.268827041067695e-04 1.548409512709768e-04 2.001138986139973e-03
-2.960227569949135e-04 -7.423997568652752e-04 1.644093980640260e-03
-1.130877604123942e-04 -3.899475116093105e-04 3.984048250210050e-04
5.758612574502627e-04 4.538284441083081e-04 6.595847857862221e-03
8.507797770272969e-04 4.857949740930176e-04 9.256010075698571e-03
-2.157105149891708e-05 4.949355733123352e-06 7.936984902404666e-05
-8.933398447725946e-11 6.176376654966827e-12 6.102347038342019e-10
-3.245639399163805e-05 5.113133372882472e-07 8.097814643905603e-05
-3.618980525923148e-10 -2.446304721037118e-11 1.621765625949034e-09
-5.348740218652380e-04 -5.348740218652518e-04 4.057127890315389e-03
-3.294744242516364e-04 -5.331066699415706e-04 9.207095302904345e-04
-1.334294871368446e-04 -2.176157121613597e-04 3.918886771061769e-04
-5.331066699415462e-04 -3.294744242516231e-04 9.207095302892223e-04
-2.675797317920798e-04 -2.675797317920677e-04 7.199504966375093e-04
-1.127003187768036e-04 -1.031182885803720e-04 3.063420830721865e-04
-2.176157121613376e-04 -1.334294871368440e-04 3.918886771052346e-04
-1.031182885803992e-04 -1.127003187768073e-04 3.063420830716713e-04
-3.586039480094632e-05 5.355530423572386e-04 3.146063975108286e-04
-1.548409512709849e-04 9.268827041067761e-04 2.001138986139970e-03
-4.857949740930117e-04 8.507797770272758e-04 9.256010075698236e-03
-1.130877604123894e-04 3.899475116092915e-04 3.984048250212656e-04
-2.960227569949080e-04 7.423997568652629e-04 1.644093980640433e-03
-4.538284441082728e-04 5.758612574502215e-04 6.595847857861423e-03
-1.334294871368368e-04 2.176157121613606e-04 3.918886771069309e-04
-3.294744242516290e-04 5.331066699415659e-04 9.207095302906971e-04
-5.348740218652370e-04 5.348740218652591e-04 4.057127890315689e-03
-1.127003187767704e-04 1.031182885803813e-04 3.063420830736249e-04
-2.675797317920516e-04 2.675797317920789e-04 7.199504966382376e-04
-5.331066699415610e-04 3.294744242516405e-04 9.207095302906556e-04
-4.577624064408324e-05 4.577624064407366e-05 3.351660123194522e-04
-1.031182885803917e-04 1.127003187767931e-04 3.063420830735184e-04
-2.176157121613448e-04 1.334294871368301e-04 3.918886771061559e-04
-4.577624064411445e-05 -4.577624064405905e-05 3.351660123172311e-04
-1.309641192097334e-11 -3.053059565284912e-12 1.606181764041945e-10
-5.099634109624498e-06 -4.931314692684865e-06 5.642738560722664e-05
-9.704539118558464e-13 -4.821659481085775e-13 2.282399148566714e-11
-1.907779045689325e-06 -1.907779045688117e-06 5.273278644849364e-05
-1.027088145723242e-14 -1.027088145723023e-14 1.620170761110319e-12
-9.158267070063787e-06 -2.028746031969743e-05 2.135378223376062e-04
-0.000000000000000e+00 -0.000000000000000e+00 -0.000000000000000e+00
1.907779045686358e-06 1.907779045687777e-06 5.273278644863904e-05
1.027088145719182e-14 1.027088145719841e-14 1.620170761110603e-12
5.099634109624499e-06 4.931314692683840e-06 5.642738560736904e-05
9.704539118565569e-13 4.821659481082381e-13 2.282399148570722e-11
1.112905318107554e-05 5.830991448090834e-06 7.156064057000070e-05
1.309641192098340e-11 3.053059565281073e-12 1.606181764044250e-10
4.931314692684669e-06 5.099634109625291e-06 5.642738560734467e-05
4.821659481083738e-13 9.704539118564911e-13 2.282399148569880e-11
1.072905943277315e-05 1.072905943277263e-05 8.618085239401397e-05
1.079178784403034e-13 1.079178784403030e-13 2.204220222540306e-12
1.866488562294891e-05 1.194390204910697e-05 7.609231424745412e-05
9.776425043747319e-22 5.869152868967379e-22 9.569134650239074e-21
5.830991448091763e-06 1.112905318107401e-05 7.156064056994613e-05
3.053059565282681e-12 1.309641192098019e-11 1.606181764043491e-10
1.194390204910641e-05 1.866488562294702e-05 7.609231424742190e-05
5.869152868296171e-22 9.776425042628754e-22 9.569134649143176e-21
1.711887972275765e-05 1.711887972275789e-05 1.887708690659001e-04
-0.000000000000000e+00 -0.000000000000000e+00 -0.000000000000000e+00
4.949355733122914e-06 2.157105149891919e-05 7.936984902408202e-05
6.176376654964270e-12 8.933398447730351e-11 6.102347038346143e-10
9.883664657803776e-06 2.304562143836268e-05 9.965568834574070e-05
-0.000000000000000e+00 -0.000000000000000e+00 -0.000000000000000e+00
1.061714324420465e-05 1.731612366671225e-05 2.153909211126476e-04
-0.000000000000000e+00 -0.000000000000000e+00 -0.000000000000000e+00
5.113133372868565e-07 3.245639399164354e-05 8.097814643912727e-05
-2.446304721040360e-11 3.618980525924304e-10 1.621765625950288e-09
4.753601800617563e-06 2.649202570727824e-05 1.091110036480252e-04
-0.000000000000000e+00 -0.000000000000000e+00 -0.000000000000000e+00
9.158267070064634e-06 2.028746031969922e-05 2.135378223376257e-04
-0.000000000000000e+00 -0.000000000000000e+00 -0.000000000000000e+00
-4.753601800617614e-06 -2.649202570727642e-05 1.091110036480027e-04
-0.000000000000000e+00 -0.000000000000000e+00 -0.000000000000000e+00
-5.113133372878087e-07 -3.245639399164348e-05 8.097814643911844e-05
2.446304721038443e-11 -3.618980525923625e-10 1.621765625949789e-09
-1.061714324420300e-05 -1.731612366670955e-05 2.153909211126003e-04
-0.000000000000000e+00 -0.000000000000000e+00 -0.000000000000000e+00
2.157105149892569e-05 4.949355733121702e-06 7.936984902417569e-05
8.933398447731549e-11 6.176376654957189e-12 6.102347038348276e-10
3.245639399165371e-05 5.113133372856888e-07 8.097814643922852e-05
3.618980525925316e-10 -2.446304721041948e-11 1.621765625951245e-09
-2.028746031969580e-05 -9.158267070062864e-06 2.135378223375889e-04
-0.000000000000000e+00 -0.000000000000000e+00 -0.000000000000000e+00
2.304562143836587e-05 9.883664657804818e-06 9.965568834577812e-05
-0.000000000000000e+00 -0.000000000000000e+00 -0.000000000000000e+00
2.649202570728279e-05 4.753601800618444e-06 1.091110036480687e-04
-0.000000000000000e+00 -0.000000000000000e+00 -0.000000000000000e+00
1.731612366671274e-05 1.061714324420520e-05 2.153909211126537e-04
-0.000000000000000e+00 -0.000000000000000e+00 -0.000000000000000e+00
2.028746031970018e-05 9.158267070065012e-06 2.135378223376377e-04
-0.000000000000000e+00 -0.000000000000000e+00 -0.000000000000000e+00
-1.731612366670938e-05 -1.061714324420309e-05 2.153909211125973e-04
-0.000000000000000e+00 -0.000000000000000e+00 -0.000000000000000e+00
-9.883664657803916e-06 -2.304562143836190e-05 9.965568834571592e-05
-5.758612574502153e-04 4.538284441082902e-04 6.595847857861337e-03
-8.507797770272459e-04 4.857949740929869e-04 9.256010075697721e-03
-0.000000000000000e+00 -0.000000000000000e+00 -0.000000000000000e+00
-4.949355733124176e-06 -2.157105149891914e-05 7.936984902405926e-05
-7.423997568652713e-04 2.960227569949029e-04 1.644093980640199e-03
-9.268827041067247e-04 1.548409512709609e-04 2.001138986139032e-03
-6.176376654968603e-12 -8.933398447729522e-11 6.102347038345143e-10
-2.649202570727407e-05 -4.753601800616988e-06 1.091110036479681e-04
-3.899475116093123e-04 1.130877604123797e-04 3.984048250210107e-04
-5.355530423571575e-04 3.586039480095220e-05 3.146063975095755e-04
-0.000000000000000e+00 -0.000000000000000e+00 -0.000000000000000e+00
-2.304562143835851e-05 -9.883664657803207e-06 9.965568834566079e-05
-0.000000000000000e+00 -0.000000000000000e+00 -0.000000000000000e+00
-1.711887972275443e-05 -1.711887972275455e-05 1.887708690658091e-04
5.355530423572891e-04 -3.586039480094178e-05 3.146063975115064e-04
3.899475116093518e-04 -1.130877604123974e-04 3.984048250218916e-04
-0.000000000000000e+00 -0.000000000000000e+00 -0.000000000000000e+00
9.268827041067966e-04 -1.548409512709653e-04 2.001138986140114e-03
7.423997568653834e-04 -2.960227569949306e-04 1.644093980641788e-03
-1.194390204910527e-05 -1.866488562294564e-05 7.609231424736286e-05
8.507797770273224e-04 -4.857949740930146e-04 9.256010075698847e-03
5.758612574502992e-04 -4.538284441083322e-04 6.595847857862795e-03
-5.869152868798820e-22 -9.776425043465453e-22 9.569134649959218e-21
-8.507797770272043e-04 -4.857949740929572e-04 9.256010075697367e-03
-5.758612574502120e-04 -4.538284441082865e-04 6.595847857861091e-03
-3.245639399163615e-05 -5.113133372889964e-07 8.097814643903425e-05
-3.618980525922602e-10 2.446304721036393e-11 1.621765625948710e-09
-9.268827041066714e-04 -1.548409512709426e-04 2.001138986138389e-03
-7.423997568652511e-04 -2.960227569949116e-04 1.644093980639464e-03
-2.157105149891569e-05 -4.949355733124839e-06 7.936984902400542e-05
-8.933398447725006e-11 -6.176376654976256e-12 6.102347038339591e-10
-5.355530423571832e-04 -3.586039480095819e-05 3.146063975096819e-04
-3.899475116092825e-04 -1.130877604124144e-04 3.984048250202021e-04
-5.830991448092215e-06 -1.112905318107226e-05 7.156064056988191e-05
-5.113133372879577e-07 3.245639399164351e-05 8.097814643912756e-05
2.446304721038852e-11 3.618980525924049e-10 1.621765625950080e-09
-4.753601800618348e-06 2.649202570727798e-05 1.091110036480192e-04
-0.000000000000000e+00 -0.000000000000000e+00 -0.000000000000000e+00
-9.158267070064226e-06 2.028746031969804e-05 2.135378223376115e-04
-0.000000000000000e+00 -0.000000000000000e+00 -0.000000000000000e+00
-4.949355733123536e-06 2.157105149892066e-05 7.936984902410649e-05
-6.176376654965351e-12 8.933398447729716e-11 6.102347038346107e-10
-9.883664657804257e-06 2.304562143836276e-05 9.965568834573632e-05
-0.000000000000000e+00 -0.000000000000000e+00 -0.000000000000000e+00
-1.061714324420398e-05 1.731612366671107e-05 2.153909211126224e-04
-0.000000000000000e+00 -0.000000000000000e+00 -0.000000000000000e+00
-5.830991448091208e-06 1.112905318107378e-05 7.156064056995533e-05
-3.053059565281372e-12 1.309641192098004e-11 1.606181764043620e-10
-1.194390204910569e-05 1.866488562294713e-05 7.609231424740517e-05
2.176157121613870e-04 -1.334294871368495e-04 3.918886771073361e-04
1.031182885803639e-04 -1.127003187768074e-04 3.063420830739160e-04
4.577624064403499e-05 -4.577624064404742e-05 3.351660123190235e-04
5.331066699416428e-04 -3.294744242516800e-04 9.207095302918678e-04
2.675797317921258e-04 -2.675797317921093e-04 7.199504966390181e-04
1.127003187768452e-04 -1.031182885803550e-04 3.063420830734299e-04
5.348740218652898e-04 -5.348740218653026e-04 4.057127890316907e-03
3.294744242516744e-04 -5.331066699416011e-04 9.207095302914647e-04
1.334294871368661e-04 -2.176157121613467e-04 3.918886771069895e-04
4.538284441083124e-04 -5.758612574502700e-04 6.595847857862322e-03