<?xml version="1.0" ?> 
<!-- 
# vtk DataFile Version 3.0
-->
<VTKFile type="UnstructuredGrid" version="0.1" compressor="vtkZLibDataCompressor" byte_order="LittleEndian">
  <UnstructuredGrid>
    <FieldData>
      <DataArray type="Float64" Name="TIME" NumberOfTuples="1" format="ascii">
1.875000000000001e-01 
      </DataArray>
    </FieldData>

    <Piece NumberOfPoints="500" NumberOfCells="0" >
      <Points>
        <DataArray type="Float64" NumberOfComponents="3" format="ascii">
-4.499226444712540e-01 -4.499226444712538e-01 1.529931697049504e+00
-4.499507829332262e-01 -4.499507829332262e-01 1.629174443056009e+00
-4.499688562906319e-01 -4.499688562906319e-01 1.728505620144517e+00
-4.499779504157833e-01 -4.499779504157834e-01 1.827814733010348e+00
-4.499901973292821e-01 -4.499901973292821e-01 1.927243146615914e+00
-4.499100192153303e-01 -3.498172203663146e-01 1.529880586389738e+00
-4.499354525796682e-01 -3.498732565102563e-01 1.629138922467357e+00
-4.499615658911219e-01 -3.499180995426402e-01 1.728485807089704e+00
-4.499743498312246e-01 -3.499419749643336e-01 1.827806177326228e+00
-4.499890419438123e-01 -3.499740923845155e-01 1.927239655541089e+00
-4.499043812485312e-01 -2.497404942565090e-01 1.529840759221440e+00
-4.499289671751324e-01 -2.498121579550805e-01 1.629106081883544e+00
-4.499507248177835e-01 -2.498799227171183e-01 1.728456644159083e+00
-4.499674642179055e-01 -2.499198309650428e-01 1.827792875473575e+00
-4.499875070111620e-01 -2.499652045419088e-01 1.927234185797255e+00
-4.497472447210911e-01 -1.497259608911329e-01 1.529752177243566e+00
-4.498770820979414e-01 -1.498085799943188e-01 1.629036841855064e+00
-4.499250502720190e-01 -1.498853889889101e-01 1.728402057878592e+00
-4.499545509864025e-01 -1.499272487915984e-01 1.827768603870167e+00
-4.499849554982376e-01 -1.499691541860566e-01 1.927225669839387e+00
-4.496502131184190e-01 -4.989622679187972e-02 1.529699818249216e+00
-4.498412626575042e-01 -4.992099256996865e-02 1.628990433303518e+00
-4.499048967541635e-01 -4.995339346296185e-02 1.728362925528097e+00
-4.499456356633193e-01 -4.997144349902392e-02 1.827752357728629e+00
-4.499833202687027e-01 -4.998792430809379e-02 1.927220108467144e+00
-4.496502131184190e-01 4.989622679187984e-02 1.529699818249216e+00
-4.498412626575042e-01 4.992099256996877e-02 1.628990433303518e+00
-4.499048967541634e-01 4.995339346296192e-02 1.728362925528097e+00
-4.499456356633194e-01 4.997144349902402e-02 1.827752357728629e+00
-4.499833202687027e-01 4.998792430809383e-02 1.927220108467144e+00
-4.497472447210910e-01 1.497259608911330e-01 1.529752177243566e+00
-4.498770820979414e-01 1.498085799943190e-01 1.629036841855064e+00
-4.499250502720188e-01 1.498853889889100e-01 1.728402057878592e+00
-4.499545509864024e-01 1.499272487915985e-01 1.827768603870167e+00
-4.499849554982377e-01 1.499691541860567e-01 1.927225669839387e+00
-4.499043812485313e-01 2.497404942565091e-01 1.529840759221441e+00
-4.499289671751323e-01 2.498121579550805e-01 1.629106081883544e+00
-4.499507248177836e-01 2.498799227171184e-01 1.728456644159083e+00
-4.499674642179055e-01 2.499198309650428e-01 1.827792875473574e+00
-4.499875070111619e-01 2.499652045419089e-01 1.927234185797254e+00
-4.499100192153304e-01 3.498172203663147e-01 1.529880586389737e+00
-4.499354525796682e-01 3.498732565102563e-01 1.629138922467357e+00
-4.499615658911220e-01 3.499180995426402e-01 1.728485807089704e+00
-4.499743498312246e-01 3.499419749643335e-01 1.827806177326228e+00
-4.499890419438123e-01 3.499740923845154e-01 1.927239655541089e+00
-4.499226444712539e-01 4.499226444712540e-01 1.529931697049504e+00
-4.499507829332263e-01 4.499507829332262e-01 1.629174443056008e+00
-4.499688562906319e-01 4.499688562906320e-01 1.728505620144517e+00
-4.499779504157833e-01 4.499779504157834e-01 1.827814733010348e+00
-4.499901973292820e-01 4.499901973292820e-01 1.927243146615914e+00
-3.498172203663146e-01 -4.499100192153304e-01 1.529880586389738e+00
-3.498732565102564e-01 -4.499354525796683e-01 1.629138922467357e+00
-3.499180995426401e-01 -4.499615658911220e-01 1.728485807089704e+00
-3.499419749643335e-01 -4.499743498312246e-01 1.827806177326228e+00
-3.499740923845154e-01 -4.499890419438122e-01 1.927239655541089e+00
-3.498278572536029e-01 -3.498278572536030e-01 1.529857850461400e+00
-3.498654910937112e-01 -3.498654910937112e-01 1.629123586161296e+00
-3.499007979195772e-01 -3.499007979195772e-01 1.728456084574025e+00
-3.499310684291148e-01 -3.499310684291148e-01 1.827792328691994e+00
-3.499715713609800e-01 -3.499715713609801e-01 1.927234010831611e+00
-3.499177693473568e-01 -2.495148569601073e-01 1.529813644979391e+00
-3.498921517711380e-01 -2.497402957827183e-01 1.629131450596630e+00
-3.498955589651004e-01 -2.498473763078790e-01 1.728432752906567e+00
-3.499104431719265e-01 -2.498965552585914e-01 1.827770807035779e+00
-3.499684697579188e-01 -2.499611418011523e-01 1.927223546848063e+00
-3.497054249484001e-01 -1.493944080893208e-01 1.529511077642885e+00
-3.497308980952034e-01 -1.496818631571279e-01 1.628959798599996e+00
-3.498499019713656e-01 -1.498386512833132e-01 1.728344662081480e+00
-3.498711361536206e-01 -1.499010687662318e-01 1.827726071984288e+00
-3.499624528457088e-01 -1.499646499546105e-01 1.927205145361111e+00
-3.494948976593980e-01 -4.972486368571766e-02 1.529201645934859e+00
-3.496239284065958e-01 -4.988378346009242e-02 1.628839609481019e+00
-3.498202046491192e-01 -4.993375725116890e-02 1.728282967330443e+00
-3.498430861351641e-01 -4.995988651545100e-02 1.827694229328331e+00
-3.499586953262204e-01 -4.998624552758372e-02 1.927192532818459e+00
-3.494948976593981e-01 4.972486368571783e-02 1.529201645934859e+00
-3.496239284065958e-01 4.988378346009253e-02 1.628839609481019e+00
-3.498202046491192e-01 4.993375725116898e-02 1.728282967330443e+00
-3.498430861351642e-01 4.995988651545097e-02 1.827694229328331e+00
-3.499586953262203e-01 4.998624552758376e-02 1.927192532818460e+00
-3.497054249484001e-01 1.493944080893210e-01 1.529511077642885e+00
-3.497308980952034e-01 1.496818631571279e-01 1.628959798599996e+00
-3.498499019713655e-01 1.498386512833131e-01 1.728344662081480e+00
-3.498711361536205e-01 1.499010687662318e-01 1.827726071984288e+00
-3.499624528457088e-01 1.499646499546106e-01 1.927205145361111e+00
-3.499177693473570e-01 2.495148569601074e-01 1.529813644979391e+00
-3.498921517711380e-01 2.497402957827183e-01 1.629131450596630e+00
-3.498955589651003e-01 2.498473763078789e-01 1.728432752906567e+00
-3.499104431719264e-01 2.498965552585915e-01 1.827770807035779e+00
-3.499684697579188e-01 2.499611418011524e-01 1.927223546848063e+00
-3.498278572536031e-01 3.498278572536030e-01 1.529857850461399e+00
-3.498654910937112e-01 3.498654910937112e-01 1.629123586161296e+00
-3.499007979195772e-01 3.499007979195772e-01 1.728456084574025e+00
-3.499310684291148e-01 3.499310684291149e-01 1.827792328691994e+00
-3.499715713609801e-01 3.499715713609802e-01 1.927234010831611e+00
-3.498172203663145e-01 4.499100192153302e-01 1.529880586389738e+00
-3.498732565102564e-01 4.499354525796682e-01 1.629138922467357e+00
-3.499180995426402e-01 4.499615658911221e-01 1.728485807089704e+00
-3.499419749643335e-01 4.499743498312247e-01 1.827806177326227e+00
-3.499740923845154e-01 4.499890419438123e-01 1.927239655541089e+00
-2.497404942565090e-01 -4.499043812485313e-01 1.529840759221441e+00
-2.498121579550806e-01 -4.499289671751324e-01 1.629106081883544e+00
-2.498799227171183e-01 -4.499507248177835e-01 1.728456644159083e+00
-2.499198309650427e-01 -4.499674642179055e-01 1.827792875473575e+00
-2.499652045419088e-01 -4.499875070111620e-01 1.927234185797254e+00
-2.495148569601072e-01 -3.499177693473570e-01 1.529813644979391e+00
-2.497402957827183e-01 -3.498921517711380e-01 1.629131450596630e+00
-2.498473763078790e-01 -3.498955589651003e-01 1.728432752906567e+00
-2.498965552585913e-01 -3.499104431719264e-01 1.827770807035779e+00
-2.499611418011523e-01 -3.499684697579187e-01 1.927223546848063e+00
-2.497298238457162e-01 -2.497298238457162e-01 1.530749958630239e+00
-2.495999562629855e-01 -2.495999562629856e-01 1.629275437326380e+00
-2.498336364451866e-01 -2.498336364451865e-01 1.728458403204287e+00
-2.498534791653713e-01 -2.498534791653714e-01 1.827749471416192e+00
-2.499556744155971e-01 -2.499556744155970e-01 1.927200685039056e+00
-2.484365935312498e-01 -1.495228285265841e-01 1.531218235494004e+00
-2.489743058292429e-01 -1.494493186167157e-01 1.629025282900426e+00
-2.497311185589849e-01 -1.497975254342959e-01 1.728298542617115e+00
-2.497776013373301e-01 -1.498511737873705e-01 1.827689088292637e+00
-2.499456815295146e-01 -1.499583142551047e-01 1.927158758392840e+00
-2.479042879688370e-01 -4.981797725828591e-02 1.531552484780277e+00
-2.484941677860816e-01 -4.974534433653984e-02 1.628799938230016e+00
-2.496750889771888e-01 -4.992929832933498e-02 1.728201076363227e+00
-2.497230763187450e-01 -4.993753865365048e-02 1.827646502210055e+00
-2.499393344742612e-01 -4.998385106159242e-02 1.927128876836662e+00
-2.479042879688370e-01 4.981797725828602e-02 1.531552484780277e+00
-2.484941677860815e-01 4.974534433653994e-02 1.628799938230016e+00
-2.496750889771888e-01 4.992929832933509e-02 1.728201076363227e+00
-2.497230763187450e-01 4.993753865365048e-02 1.827646502210055e+00
-2.499393344742612e-01 4.998385106159249e-02 1.927128876836662e+00
-2.484365935312498e-01 1.495228285265841e-01 1.531218235494004e+00
-2.489743058292429e-01 1.494493186167158e-01 1.629025282900426e+00
-2.497311185589850e-01 1.497975254342960e-01 1.728298542617115e+00
-2.497776013373303e-01 1.498511737873705e-01 1.827689088292637e+00
-2.499456815295145e-01 1.499583142551048e-01 1.927158758392840e+00
-2.497298238457162e-01 2.497298238457163e-01 1.530749958630239e+00
-2.495999562629855e-01 2.495999562629855e-01 1.629275437326379e+00
-2.498336364451865e-01 2.498336364451865e-01 1.728458403204287e+00
-2.498534791653714e-01 2.498534791653716e-01 1.827749471416192e+00
-2.499556744155972e-01 2.499556744155973e-01 1.927200685039056e+00
[...]
  <PointData>
        <DataArray type="Float64" Name="acceleration" NumberOfComponents="3" format="ascii">
1.925873809170781e-02 1.925873809156679e-02 -4.374746094073591e-01
1.515198431222006e-02 1.515198431225478e-02 -2.173152969081591e-01
1.531911785475397e-02 1.531911785480497e-02 -1.552161031175292e-01
1.481852892455997e-02 1.481852892444611e-02 -8.212643734037506e-02
8.331891788590812e-03 8.331891788448523e-03 -2.416045909847675e-03
4.603080200908207e-02 3.099400517604278e-02 -4.258463725811274e-01
4.392319063589358e-02 3.787306722239494e-02 -2.150451330203162e-01
2.428507011519686e-02 3.790972142129826e-02 -1.521693775928435e-01
1.775515952731221e-02 3.522002763727147e-02 -8.574481387625199e-02
1.263620666436798e-02 2.083506106908631e-02 -6.542837542531821e-03
4.026556668705794e-02 4.257188695498365e-02 -3.769182503352263e-01
7.489686085973964e-02 6.172302307074421e-02 -2.053818986960740e-01
4.566711840737575e-02 5.318200819971027e-02 -1.538638318367755e-01
2.421116080832564e-02 4.322089272034545e-02 -9.100286665964225e-02
1.886632504789179e-02 2.622172674874690e-02 -1.090288501145675e-02
4.382792200532676e-02 4.308476304745036e-02 -3.212787139487708e-01
1.108397328159989e-01 5.790828352936511e-02 -2.027581675807132e-01
7.688640505309915e-02 4.529525596297364e-02 -1.655996873678136e-01
3.304401971730455e-02 3.511380501727281e-02 -9.797214471414528e-02
2.486370080607513e-02 2.203843793677243e-02 -1.417674881400899e-02
4.576448880911316e-02 1.194883967626557e-02 -2.834551362881366e-01
1.343894015980684e-01 1.895517957553578e-02 -2.018095860744532e-01
9.878056595866136e-02 1.470343637551688e-02 -1.731317291332262e-01
3.829108223590317e-02 1.226551539853593e-02 -1.003344640850429e-01
2.821045893835906e-02 8.316744863181423e-03 -1.521987502878464e-02
4.576448880909011e-02 -1.194883967643439e-02 -2.834551362880183e-01
1.343894015979509e-01 -1.895517957548157e-02 -2.018095860743437e-01
9.878056595864741e-02 -1.470343637547681e-02 -1.731317291332843e-01
3.829108223590164e-02 -1.226551539849160e-02 -1.003344640849919e-01
2.821045893831945e-02 -8.316744863035155e-03 -1.521987502869759e-02
4.382792200534676e-02 -4.308476304748999e-02 -3.212787139486569e-01
1.108397328159259e-01 -5.790828352958040e-02 -2.027581675806399e-01
7.688640505312036e-02 -4.529525596322637e-02 -1.655996873678626e-01
3.304401971737361e-02 -3.511380501750024e-02 -9.797214471399551e-02
2.486370080617265e-02 -2.203843793700104e-02 -1.417674881382869e-02
4.026556668692017e-02 -4.257188695494004e-02 -3.769182503351575e-01
7.489686085963647e-02 -6.172302307077600e-02 -2.053818986961121e-01
4.566711840734713e-02 -5.318200819961715e-02 -1.538638318367136e-01
2.421116080832629e-02 -4.322089272018739e-02 -9.100286665966212e-02
1.886632504797474e-02 -2.622172674882892e-02 -1.090288501155179e-02
4.603080200881714e-02 -3.099400517594527e-02 -4.258463725811553e-01
4.392319063577407e-02 -3.787306722229764e-02 -2.150451330202734e-01
2.428507011508214e-02 -3.790972142112291e-02 -1.521693775926099e-01
1.775515952712177e-02 -3.522002763712432e-02 -8.574481387635702e-02
1.263620666423809e-02 -2.083506106896011e-02 -6.542837542732549e-03
1.925873809157908e-02 -1.925873809148658e-02 -4.374746094073975e-01
1.515198431219342e-02 -1.515198431214772e-02 -2.173152969081080e-01
1.531911785471692e-02 -1.531911785487709e-02 -1.552161031174507e-01
1.481852892445699e-02 -1.481852892456188e-02 -8.212643734043512e-02
8.331891788484327e-03 -8.331891788416168e-03 -2.416045909907183e-03
3.099400517594408e-02 4.603080200901776e-02 -4.258463725812171e-01
3.787306722235170e-02 4.392319063593988e-02 -2.150451330203439e-01
3.790972142123850e-02 2.428507011521965e-02 -1.521693775927357e-01
3.522002763727708e-02 1.775515952723840e-02 -8.574481387621191e-02
2.083506106912869e-02 1.263620666435679e-02 -6.542837542581559e-03
3.110655293570587e-02 3.110655293577719e-02 -3.655190747536431e-01
7.196204067696907e-02 7.196204067702514e-02 -2.188246136452473e-01
6.227995779309674e-02 6.227995779315512e-02 -1.705689943273604e-01
4.444375039784747e-02 4.444375039780696e-02 -8.837387308864503e-02
3.081315659379783e-02 3.081315659367957e-02 -5.629924250197149e-03
3.944786697743216e-02 5.555929273696447e-02 -2.815198416765416e-01
7.140352506535408e-02 9.055955326328351e-02 -1.764812089509933e-01
9.797696015286911e-02 9.495382972742618e-02 -1.864374835462982e-01
6.390138006536676e-02 5.998240917108830e-02 -1.026283750880856e-01
4.531772068265787e-02 3.772604066116171e-02 -2.113425162105109e-03
1.625192909639113e-01 7.743227956784153e-02 -2.539362040835922e-01
9.161481041969424e-02 8.769186429355443e-02 -1.555733182995258e-01
1.464238978427854e-01 8.792785075040525e-02 -2.109610396716589e-01
9.033898422371357e-02 5.074577883900788e-02 -1.302890736808347e-01
5.942251887143744e-02 3.078983504906500e-02 1.947497881841898e-03
2.035787098365390e-01 4.306313525972683e-03 -2.351241348574162e-01
8.672617127027088e-02 2.402668693997984e-02 -1.303350366005291e-01
1.770353895389958e-01 3.097852388592553e-02 -2.259355761853904e-01
1.064018620326379e-01 1.744326357166869e-02 -1.483776875737079e-01
6.715705204673462e-02 1.121730305975819e-02 6.145397683656739e-03
2.035787098365618e-01 -4.306313526090577e-03 -2.351241348573713e-01
8.672617127026118e-02 -2.402668693997092e-02 -1.303350366004011e-01
1.770353895390296e-01 -3.097852388581927e-02 -2.259355761853943e-01
1.064018620325804e-01 -1.744326357167830e-02 -1.483776875738166e-01
6.715705204657746e-02 -1.121730305986440e-02 6.145397683570586e-03
1.625192909641246e-01 -7.743227956778592e-02 -2.539362040834854e-01
9.161481041991591e-02 -8.769186429357709e-02 -1.555733182994551e-01
1.464238978430275e-01 -8.792785075055222e-02 -2.109610396716853e-01
9.033898422380397e-02 -5.074577883906292e-02 -1.302890736809152e-01
5.942251887130005e-02 -3.078983504898779e-02 1.947497881835680e-03
3.944786697770009e-02 -5.555929273713923e-02 -2.815198416764025e-01
7.140352506557032e-02 -9.055955326345769e-02 -1.764812089509984e-01
9.797696015306068e-02 -9.495382972746784e-02 -1.864374835462690e-01
6.390138006549810e-02 -5.998240917109775e-02 -1.026283750881213e-01
4.531772068268412e-02 -3.772604066132366e-02 -2.113425162134419e-03
3.110655293582734e-02 -3.110655293577222e-02 -3.655190747535652e-01
7.196204067701786e-02 -7.196204067694179e-02 -2.188246136451189e-01
6.227995779313573e-02 -6.227995779299682e-02 -1.705689943272078e-01
4.444375039775413e-02 -4.444375039776375e-02 -8.837387308890032e-02
3.081315659356942e-02 -3.081315659377605e-02 -5.629924250440510e-03
3.099400517597060e-02 -4.603080200879029e-02 -4.258463725811754e-01
3.787306722240374e-02 -4.392319063582929e-02 -2.150451330202142e-01
3.790972142127982e-02 -2.428507011529905e-02 -1.521693775927106e-01
3.522002763722357e-02 -1.775515952720402e-02 -8.574481387640781e-02
2.083506106898571e-02 -1.263620666407401e-02 -6.542837542754754e-03
4.257188695489825e-02 4.026556668700453e-02 -3.769182503352225e-01
6.172302307073771e-02 7.489686085970097e-02 -2.053818986961083e-01
5.318200819962347e-02 4.566711840731136e-02 -1.538638318367448e-01
4.322089272026498e-02 2.421116080826172e-02 -9.100286665947327e-02
2.622172674878799e-02 1.886632504788657e-02 -1.090288501142034e-02
5.555929273697480e-02 3.944786697754405e-02 -2.815198416765120e-01
9.055955326326956e-02 7.140352506545845e-02 -1.764812089509986e-01
9.495382972736836e-02 9.797696015299973e-02 -1.864374835463293e-01
5.998240917103839e-02 6.390138006539940e-02 -1.026283750879800e-01
3.772604066112979e-02 4.531772068256860e-02 -2.113425162037608e-03
2.728538440049345e-01 2.728538440048821e-01 -3.269079479149612e-01
1.089681470641513e-01 1.089681470641058e-01 -1.529891331615519e-01
1.376237092653930e-01 1.376237092653461e-01 -1.589907822554265e-01
9.421069138094118e-02 9.421069138086889e-02 -1.406278463119333e-01
5.481604541598776e-02 5.481604541592644e-02 1.052113584181225e-02
7.818199801729945e-01 3.356799169575946e-01 -4.376147317454587e-01
2.576410896961191e-01 1.265419472429073e-01 -3.259390365641779e-01
1.951513264411205e-01 1.291417465459303e-01 -1.294282920392933e-01
1.407677570818012e-01 8.324252138240577e-02 -2.069028306065626e-01
7.197531030233653e-02 4.386666096033794e-02 1.916683760231574e-02
1.082792301784481e+00 4.158762884872769e-02 -5.345850375477652e-01
3.149499527078702e-01 3.409274992020381e-03 -3.933182389788982e-01
2.262223739385815e-01 4.278430979883776e-02 -9.671081594798693e-02
1.703690514796287e-01 2.875984446731875e-02 -2.517732237643002e-01
8.139321965653129e-02 1.544136435235029e-02 2.565543170796136e-02
1.082792301784519e+00 -4.158762884875866e-02 -5.345850375477523e-01
3.149499527078611e-01 -3.409274991944770e-03 -3.933182389787616e-01
2.262223739385658e-01 -4.278430979861034e-02 -9.671081594798857e-02
1.703690514797092e-01 -2.875984446723411e-02 -2.517732237644152e-01
8.139321965674839e-02 -1.544136435235127e-02 2.565543170796758e-02
7.818199801729709e-01 -3.356799169574135e-01 -4.376147317453336e-01
2.576410896960901e-01 -1.265419472428134e-01 -3.259390365640815e-01
1.951513264411798e-01 -1.291417465459804e-01 -1.294282920393068e-01
1.407677570819661e-01 -8.324252138237753e-02 -2.069028306066832e-01
7.197531030265542e-02 -4.386666096026474e-02 1.916683760230953e-02
2.728538440049983e-01 -2.728538440049708e-01 -3.269079479149148e-01
1.089681470641544e-01 -1.089681470643823e-01 -1.529891331616264e-01
1.376237092653895e-01 -1.376237092655695e-01 -1.589907822553882e-01
9.421069138092297e-02 -9.421069138107097e-02 -1.406278463120386e-01
5.481604541600846e-02 -5.481604541626333e-02 1.052113584174030e-02
5.555929273721072e-02 -3.944786697761399e-02 -2.815198416766104e-01
9.055955326328415e-02 -7.140352506541264e-02 -1.764812089510449e-01
9.495382972727114e-02 -9.797696015290662e-02 -1.864374835461712e-01
5.998240917099720e-02 -6.390138006539949e-02 -1.026283750883459e-01
3.772604066117374e-02 -4.531772068267001e-02 -2.113425162393767e-03
4.257188695499387e-02 -4.026556668699285e-02 -3.769182503352358e-01
6.172302307070785e-02 -7.489686085961814e-02 -2.053818986960567e-01
5.318200819955159e-02 -4.566711840735690e-02 -1.538638318367290e-01
4.322089272029076e-02 -2.421116080817072e-02 -9.100286665968815e-02
2.622172674891081e-02 -1.886632504751516e-02 -1.090288501158110e-02
4.308476304744797e-02 4.382792200533266e-02 -3.212787139487892e-01
5.790828352933008e-02 1.108397328158531e-01 -2.027581675807214e-01
4.529525596296133e-02 7.688640505296487e-02 -1.655996873678097e-01
3.511380501726922e-02 3.304401971721398e-02 -9.797214471391880e-02
2.203843793683148e-02 2.486370080598543e-02 -1.417674881387221e-02
7.743227956783363e-02 1.625192909640915e-01 -2.539362040836922e-01
8.769186429334787e-02 9.161481041981991e-02 -1.555733182996011e-01
8.792785075025583e-02 1.464238978429759e-01 -2.109610396716342e-01
5.074577883892138e-02 9.033898422381237e-02 -1.302890736807659e-01
3.078983504899824e-02 5.942251887135746e-02 1.947497881835680e-03
3.356799169576530e-01 7.818199801730212e-01 -4.376147317455743e-01
1.265419472427902e-01 2.576410896961703e-01 -3.259390365642258e-01
1.291417465458418e-01 1.951513264411757e-01 -1.294282920392232e-01
8.324252138239346e-02 1.407677570818572e-01 -2.069028306065688e-01
4.386666096035043e-02 7.197531030239006e-02 1.916683760228111e-02
8.972442569965986e-01 8.972442569963850e-01 -3.536747218012297e-01
3.351035102389788e-01 3.351035102389717e-01 -1.078101167958571e+00
1.872406716511314e-01 1.872406716511592e-01 -5.885676158330321e-02
1.286451293280444e-01 1.286451293279916e-01 -3.274210528064796e-01
5.727948616477520e-02 5.727948616472741e-02 2.340254395339070e-02
1.228165470722947e+00 2.254692292130826e-01 -3.820437084282869e-01
4.336161129240122e-01 2.632064810316628e-02 -1.503115040951134e+00
2.175021383046420e-01 5.731299494570758e-02 1.777953968268287e-02
1.579095887296580e-01 4.521585785370277e-02 -4.079005578989455e-01
6.458092429804607e-02 1.975285168942484e-02 2.460867404354339e-02
1.228165470722954e+00 -2.254692292131625e-01 -3.820437084283244e-01
4.336161129239938e-01 -2.632064810319214e-02 -1.503115040951045e+00
2.175021383046109e-01 -5.731299494555164e-02 1.777953968272614e-02
1.579095887296809e-01 -4.521585785350712e-02 -4.079005578989012e-01
6.458092429803579e-02 -1.975285168914850e-02 2.460867404363842e-02
8.972442569964159e-01 -8.972442569963799e-01 -3.536747218011801e-01
3.351035102388198e-01 -3.351035102389450e-01 -1.078101167958402e+00
1.872406716510687e-01 -1.872406716512008e-01 -5.885676158321856e-02
1.286451293280336e-01 -1.286451293281012e-01 -3.274210528063917e-01
5.727948616477550e-02 -5.727948616485540e-02 2.340254395359231e-02
3.356799169575121e-01 -7.818199801728899e-01 -4.376147317455227e-01
1.265419472427193e-01 -2.576410896962921e-01 -3.259390365642484e-01
1.291417465457985e-01 -1.951513264414360e-01 -1.294282920392429e-01
8.324252138224224e-02 -1.407677570821718e-01 -2.069028306066468e-01
4.386666096024316e-02 -7.197531030284079e-02 1.916683760229176e-02
7.743227956780019e-02 -1.625192909641117e-01 -2.539362040838530e-01
8.769186429336638e-02 -9.161481041984615e-02 -1.555733182997437e-01
8.792785075017395e-02 -1.464238978429194e-01 -2.109610396715715e-01
5.074577883876877e-02 -9.033898422366933e-02 -1.302890736809394e-01
3.078983504904129e-02 -5.942251887123666e-02 1.947497881697124e-03
4.308476304738909e-02 -4.382792200537685e-02 -3.212787139488689e-01
5.790828352925052e-02 -1.108397328157203e-01 -2.027581675807398e-01
4.529525596288874e-02 -7.688640505287969e-02 -1.655996873677513e-01
3.511380501720693e-02 -3.304401971711361e-02 -9.797214471398430e-02
2.203843793683204e-02 -2.486370080581311e-02 -1.417674881388464e-02
1.194883967627292e-02 4.576448880902233e-02 -2.834551362882077e-01
1.895517957538845e-02 1.343894015977505e-01 -2.018095860745243e-01
1.470343637534142e-02 9.878056595842426e-02 -1.731317291332186e-01
1.226551539838355e-02 3.829108223582858e-02 -1.003344640847470e-01
8.316744863097650e-03 2.821045893832546e-02 -1.521987502852440e-02
4.306313525898833e-03 2.035787098366404e-01 -2.351241348576198e-01
2.402668693984859e-02 8.672617127031564e-02 -1.303350366006968e-01
3.097852388573789e-02 1.770353895390840e-01 -2.259355761852953e-01
1.744326357155539e-02 1.064018620326555e-01 -1.483776875734968e-01
1.121730305977937e-02 6.715705204660724e-02 6.145397683750886e-03
4.158762884857992e-02 1.082792301784687e+00 -5.345850375479195e-01
3.409274991924434e-03 3.149499527080814e-01 -3.933182389790510e-01
4.278430979862635e-02 2.262223739386998e-01 -9.671081594790364e-02
2.875984446713020e-02 1.703690514796914e-01 -2.517732237642047e-01
1.544136435227386e-02 8.139321965654031e-02 2.565543170801998e-02
2.254692292131223e-01 1.228165470722879e+00 -3.820437084283333e-01
2.632064810315889e-02 4.336161129240428e-01 -1.503115040951364e+00
5.731299494552958e-02 2.175021383046751e-01 1.777953968266822e-02
4.521585785348494e-02 1.579095887296326e-01 -4.079005578989213e-01
1.975285168919273e-02 6.458092429795700e-02 2.460867404349454e-02
3.280093934689739e-01 3.280093934688688e-01 -2.834632265778326e-01
2.455140851426196e-02 2.455140851433284e-02 -2.150583830571870e+00
6.230672982352742e-02 6.230672982375324e-02 1.352490231966883e-01
5.569434232913120e-02 5.569434232933098e-02 -5.103768738529307e-01
2.198656333568278e-02 2.198656333591196e-02 2.010816343874566e-02
3.280093934690012e-01 -3.280093934689726e-01 -2.834632265778486e-01
2.455140851425008e-02 -2.455140851440750e-02 -2.150583830571821e+00
6.230672982350662e-02 -6.230672982362791e-02 1.352490231967642e-01
5.569434232911769e-02 -5.569434232916597e-02 -5.103768738529645e-01
2.198656333556416e-02 -2.198656333585191e-02 2.010816343868083e-02
2.254692292131836e-01 -1.228165470722890e+00 -3.820437084284006e-01
2.632064810305843e-02 -4.336161129240585e-01 -1.503115040951153e+00
5.731299494550357e-02 -2.175021383046745e-01 1.777953968284499e-02
4.521585785345683e-02 -1.579095887297461e-01 -4.079005578990161e-01
1.975285168889614e-02 -6.458092429808635e-02 2.460867404346168e-02
4.158762884873815e-02 -1.082792301784467e+00 -5.345850375480107e-01
3.409274991913228e-03 -3.149499527080577e-01 -3.933182389790242e-01
4.278430979869070e-02 -2.262223739389312e-01 -9.671081594791466e-02
2.875984446720222e-02 -1.703690514800675e-01 -2.517732237644177e-01
1.544136435222850e-02 -8.139321965678847e-02 2.565543170795781e-02
4.306313525886170e-03 -2.035787098367839e-01 -2.351241348577993e-01
2.402668693987526e-02 -8.672617127042727e-02 -1.303350366007860e-01
3.097852388578152e-02 -1.770353895391104e-01 -2.259355761853936e-01
1.744326357152548e-02 -1.064018620325946e-01 -1.483776875736688e-01
1.121730305981299e-02 -6.715705204656440e-02 6.145397683755327e-03
1.194883967620061e-02 -4.576448880898341e-02 -2.834551362883111e-01
1.895517957536327e-02 -1.343894015975880e-01 -2.018095860745016e-01
1.470343637534381e-02 -9.878056595829519e-02 -1.731317291331934e-01
1.226551539832350e-02 -3.829108223556764e-02 -1.003344640848532e-01
8.316744863025888e-03 -2.821045893804557e-02 -1.521987502861322e-02
-1.194883967641398e-02 4.576448880907443e-02 -2.834551362881439e-01
-1.895517957535229e-02 1.343894015978299e-01 -2.018095860744558e-01
-1.470343637528596e-02 9.878056595847207e-02 -1.731317291332628e-01
-1.226551539848489e-02 3.829108223580350e-02 -1.003344640848523e-01
-8.316744863353374e-03 2.821045893826710e-02 -1.521987502859456e-02
-4.306313525967180e-03 2.035787098365864e-01 -2.351241348575025e-01
-2.402668693974075e-02 8.672617127033135e-02 -1.303350366006207e-01
-3.097852388565870e-02 1.770353895390866e-01 -2.259355761853840e-01
-1.744326357169223e-02 1.064018620326468e-01 -1.483776875736292e-01
-1.121730306001879e-02 6.715705204664787e-02 6.145397683661180e-03
-4.158762884875430e-02 1.082792301784642e+00 -5.345850375477120e-01
-3.409274991855594e-03 3.149499527080559e-01 -3.933182389789390e-01
-4.278430979859833e-02 2.262223739386924e-01 -9.671081594800675e-02
-2.875984446725568e-02 1.703690514797164e-01 -2.517732237642926e-01
-1.544136435237335e-02 8.139321965657688e-02 2.565543170801021e-02
-2.254692292132801e-01 1.228165470722953e+00 -3.820437084282944e-01
-2.632064810321200e-02 4.336161129239218e-01 -1.503115040951270e+00
-5.731299494549671e-02 2.175021383045983e-01 1.777953968265289e-02
-4.521585785349233e-02 1.579095887296592e-01 -4.079005578990219e-01
-1.975285168929089e-02 6.458092429788155e-02 2.460867404342526e-02
-3.280093934690591e-01 3.280093934689121e-01 -2.834632265778978e-01
-2.455140851454744e-02 2.455140851424740e-02 -2.150583830571927e+00
-6.230672982373898e-02 6.230672982362322e-02 1.352490231968077e-01
-5.569434232919066e-02 5.569434232931113e-02 -5.103768738530129e-01
-2.198656333594820e-02 2.198656333588949e-02 2.010816343854493e-02
-3.280093934690270e-01 -3.280093934689539e-01 -2.834632265779243e-01
-2.455140851448408e-02 -2.455140851436171e-02 -2.150583830571933e+00
-6.230672982374601e-02 -6.230672982357840e-02 1.352490231968810e-01
-5.569434232920498e-02 -5.569434232919275e-02 -5.103768738530092e-01
-2.198656333582759e-02 -2.198656333586892e-02 2.010816343849520e-02
-2.254692292132229e-01 -1.228165470722893e+00 -3.820437084284833e-01
-2.632064810320146e-02 -4.336161129239879e-01 -1.503115040951190e+00
-5.731299494562369e-02 -2.175021383045689e-01 1.777953968290805e-02
-4.521585785352542e-02 -1.579095887296526e-01 -4.079005578991065e-01
-1.975285168905327e-02 -6.458092429792767e-02 2.460867404328404e-02
-4.158762884885168e-02 -1.082792301784555e+00 -5.345850375479996e-01
-3.409274991969806e-03 -3.149499527079867e-01 -3.933182389789660e-01
-4.278430979869523e-02 -2.262223739388642e-01 -9.671081594788031e-02
-2.875984446711539e-02 -1.703690514800006e-01 -2.517732237643998e-01
-1.544136435208410e-02 -8.139321965667684e-02 2.565543170797735e-02
-4.306313526169135e-03 -2.035787098368224e-01 -2.351241348577071e-01
-2.402668693991764e-02 -8.672617127044573e-02 -1.303350366006471e-01
-3.097852388573415e-02 -1.770353895391362e-01 -2.259355761854018e-01
-1.744326357151755e-02 -1.064018620326618e-01 -1.483776875736831e-01