<?xml version="1.0" ?> 
<!-- 
# vtk DataFile Version 3.0
-->
<VTKFile type="UnstructuredGrid" version="0.1" compressor="vtkZLibDataCompressor" byte_order="LittleEndian">
  <UnstructuredGrid>
    <FieldData>
      <DataArray type="Float64" Name="TIME" NumberOfTuples="1" format="ascii">
2.500000000000002e-01 
      </DataArray>
    </FieldData>

    <Piece NumberOfPoints="300" NumberOfCells="0" >
      <Points>
        <DataArray type="Float64" NumberOfComponents="3" format="ascii">
-4.499296763840275e-01 -4.499296763840275e-01 1.968750000000000e+00
-4.499395935512699e-01 -4.499395935512700e-01 1.968750000000000e+00
-4.499166118256384e-01 -3.498286756448201e-01 1.968750000000000e+00
-4.499253479031977e-01 -3.498449713267714e-01 1.968750000000000e+00
-4.498895004859465e-01 -2.497493142627416e-01 1.968750000000000e+00
-4.499066057447755e-01 -2.497899885091430e-01 1.968750000000000e+00
-3.498286756448200e-01 -4.499166118256385e-01 1.968750000000000e+00
-3.498449713267716e-01 -4.499253479031977e-01 1.968750000000000e+00
-3.497789777971215e-01 -3.497789777971216e-01 1.968750000000000e+00
-3.498134745919338e-01 -3.498134745919337e-01 1.968750000000000e+00
-3.497224663485776e-01 -2.496265534891119e-01 1.968750000000000e+00
-3.497682524739303e-01 -2.497336403248586e-01 1.968750000000000e+00
-2.497493142627416e-01 -4.498895004859466e-01 1.968750000000000e+00
-2.497899885091429e-01 -4.499066057447755e-01 1.968750000000000e+00
-2.496265534891120e-01 -3.497224663485775e-01 1.968750000000000e+00
-2.497336403248586e-01 -3.497682524739303e-01 1.968750000000000e+00
-2.495128666045756e-01 -2.495128666045755e-01 1.968750000000000e+00
-2.496373060964374e-01 -2.496373060964374e-01 1.968750000000000e+00
-1.497620061631164e-01 -4.498154437336290e-01 1.968750000000000e+00
-1.498109436736107e-01 -4.498750187712500e-01 1.968750000000000e+00
-1.496092824395409e-01 -3.495300240805168e-01 1.968750000000000e+00
-1.497533153365301e-01 -3.496789162455547e-01 1.968750000000000e+00
-1.494426118068513e-01 -2.491527363314997e-01 1.968750000000000e+00
-1.496482568115242e-01 -2.494546422313492e-01 1.968750000000000e+00
-4.990836176061417e-02 -4.497642619129699e-01 1.968750000000000e+00
-4.992722546294212e-02 -4.498568615014635e-01 1.968750000000000e+00
-4.984425960197586e-02 -3.494117713339889e-01 1.968750000000000e+00
-4.990491499306393e-02 -3.496248733715355e-01 1.968750000000000e+00
-4.980592793892524e-02 -2.489653209126894e-01 1.968750000000000e+00
-4.986099146232092e-02 -2.493348929868873e-01 1.968750000000000e+00
2.498577383081827e-01 -3.498652137961069e-01 1.968750000000000e+00
2.498182579009119e-01 -2.498182579009118e-01 1.968750000000000e+00
-1.497598139433030e-01 4.992012657118952e-02 1.968750000000000e+00
-1.497871361321735e-01 1.497871361321735e-01 1.968750000000000e+00
3.499151145327625e-01 -4.499596292921307e-01 1.968750000000000e+00
3.498945703018446e-01 -3.498945703018445e-01 1.968750000000000e+00
-4.991076970852903e-02 4.991076970852917e-02 1.968750000000000e+00
-4.992012657118947e-02 1.497598139433030e-01 1.968750000000000e+00
3.498652137961068e-01 -2.498577383081827e-01 1.968750000000000e+00
4.499678280962982e-01 -4.499678280962981e-01 1.968750000000000e+00
4.499596292921307e-01 -3.499151145327624e-01 1.968750000000000e+00
4.499469979202212e-01 -2.498865844419858e-01 1.968750000000000e+00
2.491527363314996e-01 1.494426118068512e-01 1.968750000000000e+00
2.494546422313492e-01 1.496482568115244e-01 1.968750000000000e+00
4.993750305000960e-02 2.497353795080060e-01 1.968750000000000e+00
-4.498154437336291e-01 -1.497620061631165e-01 1.968750000000000e+00
-4.498750187712501e-01 -1.498109436736108e-01 1.968750000000000e+00
-4.497642619129699e-01 -4.990836176061414e-02 1.968750000000000e+00
-4.498568615014634e-01 -4.992722546294207e-02 1.968750000000000e+00
4.995093849153320e-02 3.498016691896229e-01 1.968750000000000e+00
2.497353795080060e-01 4.993750305000966e-02 1.968750000000000e+00
2.497659656531157e-01 1.498353219004247e-01 1.968750000000000e+00
3.494117713339889e-01 4.984425960197586e-02 1.968750000000000e+00
-3.495300240805168e-01 -1.496092824395409e-01 1.968750000000000e+00
-3.496789162455548e-01 -1.497533153365302e-01 1.968750000000000e+00
-3.494117713339888e-01 -4.984425960197586e-02 1.968750000000000e+00
-3.496248733715353e-01 -4.990491499306385e-02 1.968750000000000e+00
3.496248733715353e-01 4.990491499306396e-02 1.968750000000000e+00
-4.499469979202212e-01 2.498865844419858e-01 1.968750000000000e+00
-4.499596292921308e-01 3.499151145327624e-01 1.968750000000000e+00
-4.499678280962981e-01 4.499678280962982e-01 1.968750000000000e+00
-2.491527363314996e-01 -1.494426118068512e-01 1.968750000000000e+00
-2.494546422313491e-01 -1.496482568115243e-01 1.968750000000000e+00
-2.489653209126894e-01 -4.980592793892516e-02 1.968750000000000e+00
-2.493348929868872e-01 -4.986099146232092e-02 1.968750000000000e+00
-3.498652137961069e-01 2.498577383081827e-01 1.968750000000000e+00
-3.498945703018445e-01 3.498945703018447e-01 1.968750000000000e+00
-3.499151145327624e-01 4.499596292921308e-01 1.968750000000000e+00
-2.498182579009119e-01 2.498182579009119e-01 1.968750000000000e+00
-1.489888606950348e-01 -1.489888606950348e-01 1.968750000000000e+00
-1.494489529039360e-01 -1.494489529039362e-01 1.968750000000000e+00
-1.487385950487986e-01 -4.967248287590523e-02 1.968750000000000e+00
-1.493151906690336e-01 -4.977557739975880e-02 1.968750000000000e+00
-2.498577383081827e-01 3.498652137961069e-01 1.968750000000000e+00
-2.498865844419857e-01 4.499469979202215e-01 1.968750000000000e+00
-1.498353219004246e-01 2.497659656531155e-01 1.968750000000000e+00
-1.498727440205224e-01 3.498257805660645e-01 1.968750000000000e+00
-4.967248287590521e-02 -1.487385950487985e-01 1.968750000000000e+00
-4.977557739975875e-02 -1.493151906690336e-01 1.968750000000000e+00
-4.962067590000637e-02 -4.962067590000626e-02 1.968750000000000e+00
-4.971655133764424e-02 -4.971655133764422e-02 1.968750000000000e+00
-1.499008124544876e-01 4.499301883448124e-01 1.968750000000000e+00
-4.993750305000952e-02 2.497353795080060e-01 1.968750000000000e+00
-4.995093849153318e-02 3.498016691896229e-01 1.968750000000000e+00
-4.996160035802702e-02 4.499193468586193e-01 1.968750000000000e+00
3.495300240805167e-01 1.496092824395408e-01 1.968750000000000e+00
3.496789162455549e-01 1.497533153365301e-01 1.968750000000000e+00
4.996160035802716e-02 4.499193468586194e-01 1.968750000000000e+00
1.498353219004246e-01 2.497659656531157e-01 1.968750000000000e+00
4.992012657118958e-02 -1.497598139433030e-01 1.968750000000000e+00
4.991076970852915e-02 -4.991076970852909e-02 1.968750000000000e+00
3.498016691896228e-01 4.995093849153326e-02 1.968750000000000e+00
3.498257805660646e-01 1.498727440205226e-01 1.968750000000000e+00
1.497871361321736e-01 -1.497871361321734e-01 1.968750000000000e+00
1.497598139433030e-01 -4.992012657118951e-02 1.968750000000000e+00
4.497642619129701e-01 4.990836176061411e-02 1.968750000000000e+00
4.498568615014635e-01 4.992722546294218e-02 1.968750000000000e+00
2.497659656531156e-01 -1.498353219004247e-01 1.968750000000000e+00
2.497353795080061e-01 -4.993750305000955e-02 1.968750000000000e+00
4.498154437336291e-01 1.497620061631163e-01 1.968750000000000e+00
4.498750187712502e-01 1.498109436736108e-01 1.968750000000000e+00
3.498257805660646e-01 -1.498727440205225e-01 1.968750000000000e+00
3.498016691896229e-01 -4.995093849153315e-02 1.968750000000000e+00
1.498727440205225e-01 3.498257805660646e-01 1.968750000000000e+00
1.499008124544876e-01 4.499301883448124e-01 1.968750000000000e+00
4.499301883448126e-01 -1.499008124544876e-01 1.968750000000000e+00
4.499193468586193e-01 -4.996160035802696e-02 1.968750000000000e+00
4.499193468586192e-01 4.996160035802716e-02 1.968750000000000e+00
4.499301883448126e-01 1.499008124544876e-01 1.968750000000000e+00
-4.499678280962982e-01 -4.499678280962982e-01 1.968750000000000e+00
-4.499596292921308e-01 -3.499151145327624e-01 1.968750000000000e+00
-4.499469979202214e-01 -2.498865844419857e-01 1.968750000000000e+00
-3.499151145327624e-01 -4.499596292921308e-01 1.968750000000000e+00
-3.498945703018444e-01 -3.498945703018445e-01 1.968750000000000e+00
-3.498652137961068e-01 -2.498577383081826e-01 1.968750000000000e+00
-2.498865844419857e-01 -4.499469979202214e-01 1.968750000000000e+00
-2.498577383081826e-01 -3.498652137961067e-01 1.968750000000000e+00
-2.498182579009118e-01 -2.498182579009117e-01 1.968750000000000e+00
-1.499008124544876e-01 -4.499301883448124e-01 1.968750000000000e+00
-1.498727440205225e-01 -3.498257805660646e-01 1.968750000000000e+00
-1.498353219004246e-01 -2.497659656531157e-01 1.968750000000000e+00
-4.996160035802708e-02 -4.499193468586191e-01 1.968750000000000e+00
-4.995093849153318e-02 -3.498016691896225e-01 1.968750000000000e+00
-4.993750305000955e-02 -2.497353795080060e-01 1.968750000000000e+00
4.990836176061414e-02 -4.497642619129699e-01 1.968750000000000e+00
4.992722546294220e-02 -4.498568615014635e-01 1.968750000000000e+00
4.984425960197592e-02 -3.494117713339888e-01 1.968750000000000e+00
4.990491499306385e-02 -3.496248733715354e-01 1.968750000000000e+00
4.980592793892527e-02 -2.489653209126895e-01 1.968750000000000e+00
4.986099146232095e-02 -2.493348929868872e-01 1.968750000000000e+00
1.497620061631163e-01 -4.498154437336289e-01 1.968750000000000e+00
1.498109436736108e-01 -4.498750187712499e-01 1.968750000000000e+00
1.496092824395410e-01 -3.495300240805168e-01 1.968750000000000e+00
-4.499301883448124e-01 -1.499008124544876e-01 1.968750000000000e+00
-4.499193468586192e-01 -4.996160035802708e-02 1.968750000000000e+00
1.497533153365302e-01 -3.496789162455547e-01 1.968750000000000e+00
1.494426118068512e-01 -2.491527363314996e-01 1.968750000000000e+00
-3.498257805660645e-01 -1.498727440205224e-01 1.968750000000000e+00
-3.498016691896229e-01 -4.995093849153315e-02 1.968750000000000e+00
1.496482568115243e-01 -2.494546422313492e-01 1.968750000000000e+00
2.497493142627416e-01 -4.498895004859464e-01 1.968750000000000e+00
[...]
  <PointData>
        <DataArray type="Float64" Name="contact force" NumberOfComponents="3" format="ascii">
-0.000000000000000e+00 -0.000000000000000e+00 -0.000000000000000e+00
2.258385338446497e-07 2.258385338450927e-07 -2.253320505883456e-06
-0.000000000000000e+00 -0.000000000000000e+00 -0.000000000000000e+00
2.872737814057391e-07 4.711449239644637e-07 2.674236205871444e-06
-0.000000000000000e+00 -0.000000000000000e+00 -0.000000000000000e+00
3.521453040209813e-07 6.825616953706012e-07 1.075170178582409e-05
-0.000000000000000e+00 -0.000000000000000e+00 -0.000000000000000e+00
4.711449239651412e-07 2.872737814057510e-07 2.674236205875087e-06
-0.000000000000000e+00 -0.000000000000000e+00 -0.000000000000000e+00
5.253673718730335e-07 5.253673718729099e-07 5.680578409515643e-06
-0.000000000000000e+00 -0.000000000000000e+00 -0.000000000000000e+00
5.376816327332863e-07 7.918525095098903e-07 1.296463083867599e-05
-0.000000000000000e+00 -0.000000000000000e+00 -0.000000000000000e+00
6.825616953712116e-07 3.521453040202236e-07 1.075170178582132e-05
-0.000000000000000e+00 -0.000000000000000e+00 -0.000000000000000e+00
7.918525095098828e-07 5.376816327326561e-07 1.296463083869686e-05
-0.000000000000000e+00 -0.000000000000000e+00 -0.000000000000000e+00
9.498115165905592e-07 9.498115165909342e-07 2.402575771248349e-05
-0.000000000000000e+00 -0.000000000000000e+00 -0.000000000000000e+00
6.598004242047025e-07 4.647770346517551e-07 1.711838045649968e-05
-0.000000000000000e+00 -0.000000000000000e+00 -0.000000000000000e+00
7.876758634459628e-07 6.948146633444469e-07 1.747779385548796e-05
-0.000000000000000e+00 -0.000000000000000e+00 -0.000000000000000e+00
1.004179272503688e-06 1.420056605412354e-06 3.153740824716190e-05
-0.000000000000000e+00 -0.000000000000000e+00 -0.000000000000000e+00
2.228534619902561e-07 5.229097727851680e-07 2.154406581768084e-05
-0.000000000000000e+00 -0.000000000000000e+00 -0.000000000000000e+00
2.355654728128246e-07 7.442161667813756e-07 2.119041697768234e-05
-0.000000000000000e+00 -0.000000000000000e+00 -0.000000000000000e+00
2.457260276646544e-07 1.660753498025192e-06 3.833399218141584e-05
-1.949879568378271e-05 1.716564636549368e-05 4.897569475145929e-04
-2.524458661600576e-05 2.524458661599311e-05 5.998785257599886e-04
3.780437735833705e-05 -1.140142271219389e-05 6.362719988634912e-04
3.289987266669862e-05 -3.289987266670569e-05 6.448719786997404e-04
-1.058012943846538e-05 5.691259583280529e-06 3.260866673429947e-04
-1.335812667512246e-05 1.335812667511119e-05 3.898995001477674e-04
1.290644740321386e-05 -1.290644740322495e-05 6.001575806555405e-04
1.140142271217248e-05 -3.780437735835565e-05 6.362719988647364e-04
-1.716564636550689e-05 1.949879568377337e-05 4.897569475139064e-04
-4.268783486971794e-06 4.268783486964805e-06 2.804020337790738e-04
-5.691259583292388e-06 1.058012943845008e-05 3.260866673429397e-04
-7.879336129287363e-06 1.520877658553915e-05 4.107790036859309e-04
-0.000000000000000e+00 -0.000000000000000e+00 -0.000000000000000e+00
-1.420056605411943e-06 -1.004179272503707e-06 3.153740824712758e-05
-8.749838325793191e-06 -3.851680587094608e-05 6.856221273463153e-04
-0.000000000000000e+00 -0.000000000000000e+00 -0.000000000000000e+00
4.647770346522387e-07 6.598004242047436e-07 1.711838045650080e-05
-0.000000000000000e+00 -0.000000000000000e+00 -0.000000000000000e+00
5.229097727848548e-07 2.228534619901992e-07 2.154406581767140e-05
-6.764942828863584e-06 -2.669886283166797e-05 6.156007403243582e-04
-3.851680587093810e-05 -8.749838325766562e-06 6.856221273469456e-04
-3.346080663386216e-05 -2.473134446601950e-05 6.525217774978548e-04
-0.000000000000000e+00 -0.000000000000000e+00 -0.000000000000000e+00
-0.000000000000000e+00 -0.000000000000000e+00 -0.000000000000000e+00
6.948146633454192e-07 7.876758634454800e-07 1.747779385549843e-05
-0.000000000000000e+00 -0.000000000000000e+00 -0.000000000000000e+00
7.442161667820280e-07 2.355654728120286e-07 2.119041697766029e-05
-7.442161667807964e-07 -2.355654728123362e-07 2.119041697768208e-05
7.879336129284935e-06 -1.520877658556231e-05 4.107790036855522e-04
5.691259583304935e-06 -1.058012943846128e-05 3.260866673430261e-04
4.268783486970254e-06 -4.268783486957521e-06 2.804020337789685e-04
-0.000000000000000e+00 -0.000000000000000e+00 -0.000000000000000e+00
1.420056605412345e-06 1.004179272503635e-06 3.153740824717532e-05
-0.000000000000000e+00 -0.000000000000000e+00 -0.000000000000000e+00
1.660753498025662e-06 2.457260276638078e-07 3.833399218141473e-05
1.716564636551749e-05 -1.949879568376796e-05 4.897569475138629e-04
1.335812667514229e-05 -1.335812667511514e-05 3.898995001476188e-04
1.058012943848996e-05 -5.691259583294757e-06 3.260866673429947e-04
2.524458661601486e-05 -2.524458661599038e-05 5.998785257602294e-04
-0.000000000000000e+00 -0.000000000000000e+00 -0.000000000000000e+00
1.545054245206566e-06 1.545054245206826e-06 4.090347527972047e-05
-0.000000000000000e+00 -0.000000000000000e+00 -0.000000000000000e+00
1.832778399622119e-06 3.735562811504439e-07 5.010309934007300e-05
1.949879568378963e-05 -1.716564636549410e-05 4.897569475140004e-04
1.520877658556048e-05 -7.879336129283519e-06 4.107790036863470e-04
2.473134446603313e-05 -3.346080663385542e-05 6.525217774975482e-04
1.860425234620601e-05 -2.296036319519955e-05 5.648129081845607e-04
-0.000000000000000e+00 -0.000000000000000e+00 -0.000000000000000e+00
3.735562811510614e-07 1.832778399622121e-06 5.010309934007899e-05
-0.000000000000000e+00 -0.000000000000000e+00 -0.000000000000000e+00
4.248157037285081e-07 4.248157037282118e-07 6.148466892972237e-05
1.402546751535443e-05 -1.095570417854786e-05 4.921098852719298e-04
8.749838325776255e-06 -3.851680587093959e-05 6.856221273469808e-04
6.764942828832142e-06 -2.669886283166035e-05 6.156007403243191e-04
5.128998188698885e-06 -1.302542654209322e-05 5.507730423889228e-04
-0.000000000000000e+00 -0.000000000000000e+00 -0.000000000000000e+00
-6.948146633445130e-07 -7.876758634461321e-07 1.747779385546015e-05
-5.128998188731239e-06 -1.302542654209029e-05 5.507730423897306e-04
-2.473134446603425e-05 -3.346080663387854e-05 6.525217774971514e-04
-1.140142271217756e-05 3.780437735835208e-05 6.362719988653318e-04
-1.290644740321241e-05 1.290644740319481e-05 6.001575806556481e-04
-2.669886283165904e-05 -6.764942828843900e-06 6.156007403248496e-04
-2.296036319521673e-05 -1.860425234620006e-05 5.648129081847233e-04
-3.289987266674567e-05 3.289987266671118e-05 6.448719786999145e-04
-3.780437735839327e-05 1.140142271215147e-05 6.362719988641160e-04
-0.000000000000000e+00 -0.000000000000000e+00 -0.000000000000000e+00
-5.229097727857425e-07 -2.228534619906073e-07 2.154406581767973e-05
-3.346080663388090e-05 2.473134446603004e-05 6.525217774989620e-04
-3.851680587095282e-05 8.749838325780431e-06 6.856221273470053e-04
-0.000000000000000e+00 -0.000000000000000e+00 -0.000000000000000e+00
-4.647770346526473e-07 -6.598004242053347e-07 1.711838045650026e-05
-2.296036319519893e-05 1.860425234621348e-05 5.648129081854747e-04
-2.669886283164563e-05 6.764942828849427e-06 6.156007403249551e-04
-1.860425234621745e-05 -2.296036319521094e-05 5.648129081849406e-04
-1.402546751536216e-05 -1.095570417853122e-05 4.921098852728675e-04
-1.095570417855293e-05 1.402546751537457e-05 4.921098852720425e-04
-1.302542654209229e-05 5.128998188723381e-06 5.507730423903595e-04
-1.302542654207890e-05 -5.128998188716532e-06 5.507730423897965e-04
-1.095570417853264e-05 -1.402546751536539e-05 4.921098852721069e-04
4.268783486957609e-06 4.268783486967433e-06 2.804020337795733e-04
5.691259583294062e-06 1.058012943845896e-05 3.260866673430530e-04
7.879336129295899e-06 1.520877658553830e-05 4.107790036864332e-04
1.058012943847805e-05 5.691259583286839e-06 3.260866673433193e-04
1.335812667512660e-05 1.335812667512948e-05 3.898995001483498e-04
1.716564636553091e-05 1.949879568378183e-05 4.897569475141449e-04
1.520877658555442e-05 7.879336129254938e-06 4.107790036865023e-04
1.949879568377083e-05 1.716564636551311e-05 4.897569475140140e-04
2.524458661599529e-05 2.524458661602260e-05 5.998785257610456e-04
1.402546751535409e-05 1.095570417851673e-05 4.921098852721877e-04
1.860425234621539e-05 2.296036319521355e-05 5.648129081850185e-04
2.473134446603570e-05 3.346080663387555e-05 6.525217774973102e-04
5.128998188702433e-06 1.302542654207202e-05 5.507730423906222e-04
6.764942828859058e-06 2.669886283169213e-05 6.156007403249624e-04
8.749838325808365e-06 3.851680587095449e-05 6.856221273464652e-04
-0.000000000000000e+00 -0.000000000000000e+00 -0.000000000000000e+00
-2.228534619904636e-07 5.229097727859676e-07 2.154406581768389e-05
-0.000000000000000e+00 -0.000000000000000e+00 -0.000000000000000e+00
-2.355654728121505e-07 7.442161667816307e-07 2.119041697770322e-05
-0.000000000000000e+00 -0.000000000000000e+00 -0.000000000000000e+00
-2.457260276638813e-07 1.660753498025250e-06 3.833399218143847e-05
-0.000000000000000e+00 -0.000000000000000e+00 -0.000000000000000e+00
-6.598004242049359e-07 4.647770346530631e-07 1.711838045651730e-05
-0.000000000000000e+00 -0.000000000000000e+00 -0.000000000000000e+00
1.095570417855356e-05 1.402546751536449e-05 4.921098852719957e-04
1.302542654208117e-05 5.128998188723570e-06 5.507730423897815e-04
-7.876758634462994e-07 6.948146633447177e-07 1.747779385551537e-05
-0.000000000000000e+00 -0.000000000000000e+00 -0.000000000000000e+00
2.296036319524648e-05 1.860425234620811e-05 5.648129081847616e-04
2.669886283170622e-05 6.764942828841111e-06 6.156007403250883e-04
-1.004179272504362e-06 1.420056605412339e-06 3.153740824717076e-05
-0.000000000000000e+00 -0.000000000000000e+00 -0.000000000000000e+00
3.346080663386255e-05 2.473134446604456e-05 6.525217774987534e-04
3.851680587095803e-05 8.749838325784834e-06 6.856221273467668e-04
-6.825616953707080e-07 3.521453040211113e-07 1.075170178582887e-05
-0.000000000000000e+00 -0.000000000000000e+00 -0.000000000000000e+00
3.289987266669580e-05 3.289987266671550e-05 6.448719786996084e-04
3.780437735833785e-05 1.140142271218130e-05 6.362719988645294e-04
-7.918525095101898e-07 5.376816327326045e-07 1.296463083870184e-05
-0.000000000000000e+00 -0.000000000000000e+00 -0.000000000000000e+00
1.140142271219776e-05 3.780437735835154e-05 6.362719988634841e-04
1.290644740321691e-05 1.290644740320450e-05 6.001575806552459e-04
-9.498115165908586e-07 9.498115165905823e-07 2.402575771248392e-05
-0.000000000000000e+00 -0.000000000000000e+00 -0.000000000000000e+00
-4.711449239646490e-07 2.872737814056639e-07 2.674236205863697e-06
-0.000000000000000e+00 -0.000000000000000e+00 -0.000000000000000e+00
-5.253673718728746e-07 5.253673718725512e-07 5.680578409520081e-06
-0.000000000000000e+00 -0.000000000000000e+00 -0.000000000000000e+00
-5.376816327328182e-07 7.918525095102241e-07 1.296463083869762e-05
-0.000000000000000e+00 -0.000000000000000e+00 -0.000000000000000e+00
-2.258385338452161e-07 2.258385338450840e-07 -2.253320505892864e-06
-0.000000000000000e+00 -0.000000000000000e+00 -0.000000000000000e+00
-2.872737814059193e-07 4.711449239642577e-07 2.674236205860412e-06
-0.000000000000000e+00 -0.000000000000000e+00 -0.000000000000000e+00
-3.521453040212300e-07 6.825616953709384e-07 1.075170178583360e-05
-2.524458661599163e-05 -2.524458661601665e-05 5.998785257599730e-04
-1.949879568376088e-05 -1.716564636551065e-05 4.897569475135462e-04
-1.520877658553372e-05 -7.879336129265647e-06 4.107790036867802e-04
-1.716564636551706e-05 -1.949879568378048e-05 4.897569475136276e-04
-1.335812667512525e-05 -1.335812667511904e-05 3.898995001481020e-04
-1.058012943846589e-05 -5.691259583284748e-06 3.260866673429181e-04
-7.879336129291049e-06 -1.520877658555924e-05 4.107790036861577e-04
-1.290644740322408e-05 -1.290644740322902e-05 6.001575806564661e-04
-1.140142271217886e-05 -3.780437735835817e-05 6.362719988641527e-04
-5.691259583308207e-06 -1.058012943846127e-05 3.260866673431200e-04
-4.268783486980891e-06 -4.268783486949589e-06 2.804020337794206e-04
-0.000000000000000e+00 -0.000000000000000e+00 -0.000000000000000e+00
-2.457260276640129e-07 -1.660753498025158e-06 3.833399218139906e-05
-0.000000000000000e+00 -0.000000000000000e+00 -0.000000000000000e+00
-2.355654728127067e-07 -7.442161667808449e-07 2.119041697765391e-05
-0.000000000000000e+00 -0.000000000000000e+00 -0.000000000000000e+00
-2.228534619909550e-07 -5.229097727848925e-07 2.154406581765343e-05
-0.000000000000000e+00 -0.000000000000000e+00 -0.000000000000000e+00
-0.000000000000000e+00 -0.000000000000000e+00 -0.000000000000000e+00
5.229097727852159e-07 -2.228534619901631e-07 2.154406581767455e-05
-0.000000000000000e+00 -0.000000000000000e+00 -0.000000000000000e+00
4.647770346524035e-07 -6.598004242050511e-07 1.711838045652328e-05
-0.000000000000000e+00 -0.000000000000000e+00 -0.000000000000000e+00
-3.735562811502781e-07 1.832778399621927e-06 5.010309934010678e-05
-0.000000000000000e+00 -0.000000000000000e+00 -0.000000000000000e+00
-4.248157037283871e-07 4.248157037278549e-07 6.148466892974392e-05
-0.000000000000000e+00 -0.000000000000000e+00 -0.000000000000000e+00
7.442161667817861e-07 -2.355654728123004e-07 2.119041697768142e-05
-0.000000000000000e+00 -0.000000000000000e+00 -0.000000000000000e+00
6.948146633447232e-07 -7.876758634459153e-07 1.747779385548302e-05
-1.004179272503946e-06 -1.420056605412604e-06 3.153740824711514e-05
-0.000000000000000e+00 -0.000000000000000e+00 -0.000000000000000e+00
-7.876758634462704e-07 -6.948146633443368e-07 1.747779385546774e-05
-0.000000000000000e+00 -0.000000000000000e+00 -0.000000000000000e+00
-0.000000000000000e+00 -0.000000000000000e+00 -0.000000000000000e+00
1.660753498025420e-06 -2.457260276644149e-07 3.833399218141303e-05
-0.000000000000000e+00 -0.000000000000000e+00 -0.000000000000000e+00
1.420056605412302e-06 -1.004179272503901e-06 3.153740824714273e-05
-0.000000000000000e+00 -0.000000000000000e+00 -0.000000000000000e+00
-1.545054245207537e-06 1.545054245206459e-06 4.090347527973488e-05
-0.000000000000000e+00 -0.000000000000000e+00 -0.000000000000000e+00
-1.832778399623108e-06 3.735562811496918e-07 5.010309934008176e-05
-0.000000000000000e+00 -0.000000000000000e+00 -0.000000000000000e+00
1.832778399622159e-06 -3.735562811511646e-07 5.010309934007314e-05
-0.000000000000000e+00 -0.000000000000000e+00 -0.000000000000000e+00
1.545054245206466e-06 -1.545054245207055e-06 4.090347527971422e-05
-6.598004242050492e-07 -4.647770346516868e-07 1.711838045651802e-05
-0.000000000000000e+00 -0.000000000000000e+00 -0.000000000000000e+00
-9.498115165904778e-07 -9.498115165911446e-07 2.402575771245122e-05
-0.000000000000000e+00 -0.000000000000000e+00 -0.000000000000000e+00
-0.000000000000000e+00 -0.000000000000000e+00 -0.000000000000000e+00
4.248157037284757e-07 -4.248157037289392e-07 6.148466892972954e-05
-0.000000000000000e+00 -0.000000000000000e+00 -0.000000000000000e+00
3.735562811506282e-07 -1.832778399622742e-06 5.010309934006668e-05
-0.000000000000000e+00 -0.000000000000000e+00 -0.000000000000000e+00
-1.420056605412372e-06 1.004179272503243e-06 3.153740824717075e-05
-0.000000000000000e+00 -0.000000000000000e+00 -0.000000000000000e+00
-1.660753498025199e-06 2.457260276634181e-07 3.833399218140537e-05
-7.918525095096541e-07 -5.376816327323789e-07 1.296463083867066e-05
-0.000000000000000e+00 -0.000000000000000e+00 -0.000000000000000e+00
-6.825616953703890e-07 -3.521453040198324e-07 1.075170178583317e-05
-0.000000000000000e+00 -0.000000000000000e+00 -0.000000000000000e+00
-0.000000000000000e+00 -0.000000000000000e+00 -0.000000000000000e+00
-6.948146633441426e-07 7.876758634458725e-07 1.747779385551461e-05
-0.000000000000000e+00 -0.000000000000000e+00 -0.000000000000000e+00
-7.442161667804329e-07 2.355654728117144e-07 2.119041697769740e-05
-5.376816327329094e-07 -7.918525095104401e-07 1.296463083866863e-05
-0.000000000000000e+00 -0.000000000000000e+00 -0.000000000000000e+00
-5.253673718727745e-07 -5.253673718721434e-07 5.680578409497707e-06
-0.000000000000000e+00 -0.000000000000000e+00 -0.000000000000000e+00
-0.000000000000000e+00 -0.000000000000000e+00 -0.000000000000000e+00
-4.647770346532547e-07 6.598004242052041e-07 1.711838045649743e-05
-0.000000000000000e+00 -0.000000000000000e+00 -0.000000000000000e+00
3.521453040212974e-07 -6.825616953711865e-07 1.075170178581943e-05
-0.000000000000000e+00 -0.000000000000000e+00 -0.000000000000000e+00
2.872737814062298e-07 -4.711449239642834e-07 2.674236205850076e-06
-0.000000000000000e+00 -0.000000000000000e+00 -0.000000000000000e+00
2.258385338450086e-07 -2.258385338444143e-07 -2.253320505897495e-06
-0.000000000000000e+00 -0.000000000000000e+00 -0.000000000000000e+00
5.376816327331415e-07 -7.918525095098152e-07 1.296463083866300e-05
-0.000000000000000e+00 -0.000000000000000e+00 -0.000000000000000e+00
5.253673718734072e-07 -5.253673718725196e-07 5.680578409507223e-06
-0.000000000000000e+00 -0.000000000000000e+00 -0.000000000000000e+00
4.711449239654233e-07 -2.872737814055226e-07 2.674236205855406e-06
-0.000000000000000e+00 -0.000000000000000e+00 -0.000000000000000e+00
9.498115165906912e-07 -9.498115165903359e-07 2.402575771246906e-05
-0.000000000000000e+00 -0.000000000000000e+00 -0.000000000000000e+00
7.918525095104120e-07 -5.376816327320438e-07 1.296463083869490e-05
-0.000000000000000e+00 -0.000000000000000e+00 -0.000000000000000e+00
6.825616953715154e-07 -3.521453040205489e-07 1.075170178582487e-05
-0.000000000000000e+00 -0.000000000000000e+00 -0.000000000000000e+00
1.004179272503363e-06 -1.420056605411708e-06 3.153740824713379e-05
-0.000000000000000e+00 -0.000000000000000e+00 -0.000000000000000e+00
7.876758634456498e-07 -6.948146633435588e-07 1.747779385547699e-05
-0.000000000000000e+00 -0.000000000000000e+00 -0.000000000000000e+00
6.598004242047383e-07 -4.647770346523710e-07 1.711838045648154e-05
-0.000000000000000e+00 -0.000000000000000e+00 -0.000000000000000e+00
2.457260276638728e-07 -1.660753498024877e-06 3.833399218137929e-05
-0.000000000000000e+00 -0.000000000000000e+00 -0.000000000000000e+00
2.355654728116962e-07 -7.442161667803135e-07 2.119041697766531e-05
-0.000000000000000e+00 -0.000000000000000e+00 -0.000000000000000e+00
2.228534619896570e-07 -5.229097727851566e-07 2.154406581765500e-05
-0.000000000000000e+00 -0.000000000000000e+00 -0.000000000000000e+00
-5.229097727860745e-07 2.228534619898925e-07 2.154406581768418e-05
-4.711449239646041e-07 -2.872737814049371e-07 2.674236205850107e-06
-0.000000000000000e+00 -0.000000000000000e+00 -0.000000000000000e+00
-4.248157037286770e-07 -4.248157037289587e-07 6.148466892974278e-05
-0.000000000000000e+00 -0.000000000000000e+00 -0.000000000000000e+00
-3.735562811505414e-07 -1.832778399622615e-06 5.010309934007668e-05
-0.000000000000000e+00 -0.000000000000000e+00 -0.000000000000000e+00
-3.521453040209909e-07 -6.825616953713569e-07 1.075170178583282e-05
-0.000000000000000e+00 -0.000000000000000e+00 -0.000000000000000e+00
-2.872737814059893e-07 -4.711449239640064e-07 2.674236205853171e-06
-0.000000000000000e+00 -0.000000000000000e+00 -0.000000000000000e+00
-1.832778399622893e-06 -3.735562811508607e-07 5.010309934007947e-05
-0.000000000000000e+00 -0.000000000000000e+00 -0.000000000000000e+00
-1.545054245206821e-06 -1.545054245206737e-06 4.090347527970346e-05
-0.000000000000000e+00 -0.000000000000000e+00 -0.000000000000000e+00
-2.258385338453536e-07 -2.258385338440625e-07 -2.253320505887147e-06
-3.780437735837746e-05 -1.140142271217946e-05 6.362719988649015e-04
-3.289987266670152e-05 -3.289987266669417e-05 6.448719786994655e-04
-0.000000000000000e+00 -0.000000000000000e+00 -0.000000000000000e+00
-1.660753498024897e-06 -2.457260276638873e-07 3.833399218140058e-05
-5.128998188715090e-06 1.302542654208763e-05 5.507730423907693e-04
-6.764942828850278e-06 2.669886283169902e-05 6.156007403258733e-04
-8.749838325797641e-06 3.851680587095839e-05 6.856221273464682e-04
1.302542654207397e-05 -5.128998188703706e-06 5.507730423903501e-04
1.095570417853002e-05 -1.402546751536724e-05 4.921098852719202e-04
-1.402546751534840e-05 1.095570417854811e-05 4.921098852726460e-04