<?xml version="1.0" ?> 
<!-- 
# vtk DataFile Version 3.0
-->
<VTKFile type="UnstructuredGrid" version="0.1" compressor="vtkZLibDataCompressor" byte_order="LittleEndian">
  <UnstructuredGrid>
    <FieldData>
      <DataArray type="Float64" Name="TIME" NumberOfTuples="1" format="ascii">
2.500000000000002e-01 
      </DataArray>
    </FieldData>

    <Piece NumberOfPoints="16" NumberOfCells="4" >
      <Points>
        <DataArray type="Float64" NumberOfComponents="3" format="ascii">
-5.000000000000000e-01 -5.000000000000000e-01 1.000000000000000e+00
0.000000000000000e+00 -5.000000000000000e-01 1.000000000000000e+00
0.000000000000000e+00 0.000000000000000e+00 1.000000000000000e+00
-5.000000000000000e-01 0.000000000000000e+00 1.000000000000000e+00
-5.000000000000000e-01 0.000000000000000e+00 1.000000000000000e+00
0.000000000000000e+00 0.000000000000000e+00 1.000000000000000e+00
0.000000000000000e+00 5.000000000000000e-01 1.000000000000000e+00
-5.000000000000000e-01 5.000000000000000e-01 1.000000000000000e+00
0.000000000000000e+00 -5.000000000000000e-01 1.000000000000000e+00
5.000000000000000e-01 -5.000000000000000e-01 1.000000000000000e+00
5.000000000000000e-01 0.000000000000000e+00 1.000000000000000e+00
0.000000000000000e+00 0.000000000000000e+00 1.000000000000000e+00
0.000000000000000e+00 0.000000000000000e+00 1.000000000000000e+00
5.000000000000000e-01 0.000000000000000e+00 1.000000000000000e+00
5.000000000000000e-01 5.000000000000000e-01 1.000000000000000e+00
0.000000000000000e+00 5.000000000000000e-01 1.000000000000000e+00
        </DataArray>
      </Points>

      <Cells>
        <DataArray type="Int32" Name="connectivity" format="ascii">
0 1 2 3 4 5 6 7 8 9 10 11 12 13 14 15 
        </DataArray>
        <DataArray type="Int32" Name="offsets" format="ascii">
4 8 12 16 
        </DataArray>
        <DataArray type="UInt8" Name="types" format="ascii">
9 9 9 9 
        </DataArray>
      </Cells>

  <PointData>
        <DataArray type="Float64" Name="disp" NumberOfComponents="3" format="ascii">
0.000000000000000e+00 0.000000000000000e+00 -3.167130711115273e-02
0.000000000000000e+00 0.000000000000000e+00 -1.764860830381788e-02
-1.393885522107945e-17 -5.030011428743315e-17 -7.837026925064909e-02
0.000000000000000e+00 0.000000000000000e+00 -1.764860830381791e-02
0.000000000000000e+00 0.000000000000000e+00 -1.764860830381791e-02
-1.393885522107945e-17 -5.030011428743315e-17 -7.837026925064909e-02
0.000000000000000e+00 0.000000000000000e+00 -1.764860830381804e-02
0.000000000000000e+00 0.000000000000000e+00 -3.167130711115276e-02
0.000000000000000e+00 0.000000000000000e+00 -1.764860830381788e-02
0.000000000000000e+00 0.000000000000000e+00 -3.167130711115310e-02
0.000000000000000e+00 0.000000000000000e+00 -1.764860830381798e-02
-1.393885522107945e-17 -5.030011428743315e-17 -7.837026925064909e-02
-1.393885522107945e-17 -5.030011428743315e-17 -7.837026925064909e-02
0.000000000000000e+00 0.000000000000000e+00 -1.764860830381798e-02
0.000000000000000e+00 0.000000000000000e+00 -3.167130711115299e-02
0.000000000000000e+00 0.000000000000000e+00 -1.764860830381804e-02
        </DataArray>
        <DataArray type="Float64" Name="owner" format="ascii">
0.000000000000000e+00
0.000000000000000e+00
0.000000000000000e+00
0.000000000000000e+00
0.000000000000000e+00
0.000000000000000e+00
0.000000000000000e+00
0.000000000000000e+00
0.000000000000000e+00
0.000000000000000e+00
0.000000000000000e+00
0.000000000000000e+00
0.000000000000000e+00
0.000000000000000e+00
0.000000000000000e+00
0.000000000000000e+00
        </DataArray>
  </PointData>
  <CellData>
        <DataArray type="Float64" Name="id" format="ascii">
0.000000000000000e+00
1.000000000000000e+00
2.000000000000000e+00
3.000000000000000e+00
        </DataArray>
        <DataArray type="Float64" Name="owner" format="ascii">
0.000000000000000e+00
0.000000000000000e+00
0.000000000000000e+00
0.000000000000000e+00
        </DataArray>
      </CellData>

    </Piece>
  </UnstructuredGrid>
</VTKFile>
