<?xml version="1.0" ?> 
<!-- 
# vtk DataFile Version 3.0
-->
<VTKFile type="UnstructuredGrid" version="0.1" compressor="vtkZLibDataCompressor" byte_order="LittleEndian">
  <UnstructuredGrid>
    <FieldData>
      <DataArray type="Float64" Name="TIME" NumberOfTuples="1" format="ascii">
6.250000000000001e-02 
      </DataArray>
    </FieldData>

    <Piece NumberOfPoints="252" NumberOfCells="0" >
      <Points>
        <DataArray type="Float64" NumberOfComponents="3" format="ascii">
-4.499844892817422e-01 -4.499844892817422e-01 9.989875827011878e-01
-4.499865194917240e-01 -3.499671746962103e-01 9.989955867061390e-01
-4.499804002775877e-01 -2.499537413960387e-01 9.990035905782497e-01
-3.499671746962103e-01 -4.499865194917239e-01 9.989955867061389e-01
-3.499645929677820e-01 -3.499645929677820e-01 9.989997139998668e-01
-3.499922882476938e-01 -2.499495094513015e-01 9.990038407354334e-01
-2.499537413960388e-01 -4.499804002775877e-01 9.990035905782497e-01
-2.499495094513015e-01 -3.499922882476939e-01 9.990038407354334e-01
-2.500048475872514e-01 -2.500048475872515e-01 9.990040904128283e-01
-1.499557438368481e-01 -4.499645935227251e-01 9.990115923895131e-01
-1.499451053692892e-01 -3.500215559900078e-01 9.990079692342597e-01
-1.499384757246808e-01 -2.498309073483415e-01 9.990043362654255e-01
-4.997895048470475e-02 -4.499538048858666e-01 9.990195916553090e-01
-4.997057129491170e-02 -3.500288257096033e-01 9.990120971183503e-01
-4.999724500911340e-02 -2.497373639832425e-01 9.990045743572289e-01
-4.499507581701803e-01 2.499064506629447e-01 9.990035944362772e-01
-4.499726986017420e-01 3.499442206746712e-01 9.989955891132652e-01
-4.499636256323281e-01 3.499301283853698e-01 9.989955906152108e-01
-4.499719523520994e-01 4.499719523520993e-01 9.989875847077132e-01
-4.499617158205902e-01 4.499617158205902e-01 9.989875863459715e-01
-3.499763736886112e-01 2.499128899199413e-01 9.990038422863516e-01
-3.499503479067783e-01 2.498861027299414e-01 9.990038434561476e-01
-3.499390310090450e-01 3.499390310090449e-01 9.989997161090796e-01
-3.499207649799340e-01 3.499207649799340e-01 9.989997176159677e-01
-4.499645935227251e-01 -1.499557438368481e-01 9.990115923895131e-01
-4.499538048858664e-01 -4.997895048470474e-02 9.990195916553090e-01
-3.499442206746712e-01 4.499726986017420e-01 9.989955891132651e-01
-3.499301283853699e-01 4.499636256323283e-01 9.989955906152110e-01
-3.500215559900079e-01 -1.499451053692892e-01 9.990079692342599e-01
-3.500288257096034e-01 -4.997057129491175e-02 9.990120971183500e-01
-2.499749530669813e-01 2.499749530669813e-01 9.990040905631463e-01
-2.499387035981928e-01 2.499387035981928e-01 9.990040907444890e-01
-2.498309073483416e-01 -1.499384757246808e-01 9.990043362654255e-01
-2.497373639832425e-01 -4.999724500911340e-02 9.990045743572288e-01
-2.499128899199412e-01 3.499763736886112e-01 9.990038422863515e-01
-2.498861027299413e-01 3.499503479067783e-01 9.990038434561476e-01
-2.499234432301401e-01 4.499617116454870e-01 9.990035930493784e-01
-2.499064506629448e-01 4.499507581701802e-01 9.990035944362773e-01
-1.498696557129300e-01 2.496391024108386e-01 9.990043294736136e-01
-1.498242527274105e-01 2.495466637063500e-01 9.990043262253662e-01
-1.499048201202388e-01 3.500061525373144e-01 9.990079703386112e-01
-1.498778319744359e-01 3.499662129022330e-01 9.990079700033447e-01
-1.499266988644419e-01 4.499351458831691e-01 9.990115936456695e-01
-1.499105252893224e-01 4.499195968822136e-01 9.990115943756570e-01
-4.998098088303352e-02 2.494460709912913e-01 9.990045525482969e-01
-4.996922010509935e-02 2.493246368942386e-01 9.990045434667518e-01
-4.994645932402625e-02 3.500052829638084e-01 9.990120963477319e-01
-4.993217610382081e-02 3.499544508961513e-01 9.990120931237231e-01
-4.996350805396266e-02 4.499158125013640e-01 9.990195900410872e-01
-4.995233724815237e-02 4.498982352444965e-01 9.990195896161912e-01
1.499557438368482e-01 4.499645935227251e-01 9.990115923895131e-01
2.500048475872515e-01 2.500048475872515e-01 9.990040904128283e-01
2.499495094513015e-01 3.499922882476938e-01 9.990038407354334e-01
2.499537413960388e-01 4.499804002775877e-01 9.990035905782497e-01
2.496391024108386e-01 -1.498696557129300e-01 9.990043294736135e-01
2.495466637063499e-01 -1.498242527274105e-01 9.990043262253661e-01
-4.499719523520993e-01 -4.499719523520993e-01 9.989875847077132e-01
-4.499617158205902e-01 -4.499617158205902e-01 9.989875863459717e-01
-4.499726986017419e-01 -3.499442206746711e-01 9.989955891132651e-01
-4.499636256323281e-01 -3.499301283853699e-01 9.989955906152109e-01
-4.499617116454870e-01 -2.499234432301401e-01 9.990035930493784e-01
-4.499507581701802e-01 -2.499064506629447e-01 9.990035944362772e-01
-3.499442206746711e-01 -4.499726986017419e-01 9.989955891132650e-01
-3.499301283853698e-01 -4.499636256323281e-01 9.989955906152109e-01
-3.499390310090448e-01 -3.499390310090448e-01 9.989997161090796e-01
-3.499207649799339e-01 -3.499207649799339e-01 9.989997176159677e-01
-3.499763736886113e-01 -2.499128899199413e-01 9.990038422863516e-01
-3.499503479067783e-01 -2.498861027299413e-01 9.990038434561477e-01
-2.499234432301400e-01 -4.499617116454869e-01 9.990035930493781e-01
-2.499064506629447e-01 -4.499507581701803e-01 9.990035944362774e-01
-2.499128899199412e-01 -3.499763736886112e-01 9.990038422863515e-01
-2.498861027299412e-01 -3.499503479067783e-01 9.990038434561475e-01
-2.499749530669813e-01 -2.499749530669813e-01 9.990040905631464e-01
-2.499387035981928e-01 -2.499387035981928e-01 9.990040907444890e-01
-1.499266988644420e-01 -4.499351458831691e-01 9.990115936456695e-01
-1.499105252893224e-01 -4.499195968822135e-01 9.990115943756570e-01
-1.499048201202388e-01 -3.500061525373144e-01 9.990079703386112e-01
-1.498778319744359e-01 -3.499662129022331e-01 9.990079700033446e-01
-1.498696557129301e-01 -2.496391024108386e-01 9.990043294736135e-01
-1.498242527274106e-01 -2.495466637063499e-01 9.990043262253661e-01
-4.996350805396266e-02 -4.499158125013640e-01 9.990195900410872e-01
-4.995233724815232e-02 -4.498982352444966e-01 9.990195896161913e-01
-4.994645932402625e-02 -3.500052829638084e-01 9.990120963477320e-01
-4.993217610382078e-02 -3.499544508961513e-01 9.990120931237231e-01
-4.998098088303354e-02 -2.494460709912912e-01 9.990045525482968e-01
-4.996922010509933e-02 -2.493246368942386e-01 9.990045434667518e-01
2.494460709912912e-01 -4.998098088303354e-02 9.990045525482968e-01
2.493246368942386e-01 -4.996922010509935e-02 9.990045434667517e-01
3.499922882476939e-01 2.499495094513016e-01 9.990038407354335e-01
3.499645929677821e-01 3.499645929677821e-01 9.989997139998668e-01
3.499671746962103e-01 4.499865194917240e-01 9.989955867061389e-01
4.499804002775877e-01 2.499537413960387e-01 9.990035905782495e-01
3.500061525373144e-01 -1.499048201202388e-01 9.990079703386112e-01
3.499662129022330e-01 -1.498778319744359e-01 9.990079700033447e-01
3.500052829638083e-01 -4.994645932402630e-02 9.990120963477320e-01
3.499544508961513e-01 -4.993217610382081e-02 9.990120931237231e-01
4.499865194917240e-01 3.499671746962103e-01 9.989955867061390e-01
4.499844892817422e-01 4.499844892817422e-01 9.989875827011878e-01
1.498778319744359e-01 3.499662129022330e-01 9.990079700033447e-01
1.499266988644419e-01 4.499351458831691e-01 9.990115936456696e-01
4.499351458831691e-01 -1.499266988644420e-01 9.990115936456697e-01
-4.499351458831692e-01 -1.499266988644419e-01 9.990115936456696e-01
-4.499195968822135e-01 -1.499105252893224e-01 9.990115943756570e-01
-4.499158125013640e-01 -4.996350805396266e-02 9.990195900410872e-01
-4.498982352444966e-01 -4.995233724815229e-02 9.990195896161913e-01
4.997895048470479e-02 -4.499538048858664e-01 9.990195916553090e-01
4.997057129491181e-02 -3.500288257096032e-01 9.990120971183503e-01
4.999724500911351e-02 -2.497373639832425e-01 9.990045743572289e-01
1.499557438368481e-01 -4.499645935227251e-01 9.990115923895130e-01
-3.500061525373144e-01 -1.499048201202388e-01 9.990079703386112e-01
-3.499662129022331e-01 -1.498778319744358e-01 9.990079700033447e-01
-3.500052829638083e-01 -4.994645932402628e-02 9.990120963477318e-01
-3.499544508961513e-01 -4.993217610382078e-02 9.990120931237232e-01
1.499451053692893e-01 -3.500215559900079e-01 9.990079692342597e-01
1.499384757246809e-01 -2.498309073483415e-01 9.990043362654255e-01
2.499537413960388e-01 -4.499804002775877e-01 9.990035905782497e-01
2.499495094513016e-01 -3.499922882476939e-01 9.990038407354335e-01
-2.496391024108386e-01 -1.498696557129301e-01 9.990043294736137e-01
-2.495466637063498e-01 -1.498242527274106e-01 9.990043262253661e-01
-2.494460709912912e-01 -4.998098088303354e-02 9.990045525482969e-01
-2.493246368942385e-01 -4.996922010509938e-02 9.990045434667516e-01
2.500048475872515e-01 -2.500048475872514e-01 9.990040904128284e-01
3.499671746962103e-01 -4.499865194917239e-01 9.989955867061387e-01
3.499645929677821e-01 -3.499645929677819e-01 9.989997139998668e-01
3.499922882476939e-01 -2.499495094513015e-01 9.990038407354335e-01
4.499844892817422e-01 -4.499844892817421e-01 9.989875827011877e-01
4.499865194917240e-01 -3.499671746962102e-01 9.989955867061389e-01
4.499804002775877e-01 -2.499537413960387e-01 9.990035905782497e-01
4.499195968822135e-01 -1.499105252893224e-01 9.990115943756570e-01
4.499158125013640e-01 -4.996350805396266e-02 9.990195900410872e-01
4.498982352444966e-01 -4.995233724815235e-02 9.990195896161912e-01
3.500052829638083e-01 4.994645932402636e-02 9.990120963477318e-01
3.499544508961514e-01 4.993217610382078e-02 9.990120931237233e-01
3.500061525373145e-01 1.499048201202389e-01 9.990079703386112e-01
3.499662129022330e-01 1.498778319744359e-01 9.990079700033450e-01
1.499105252893223e-01 4.499195968822136e-01 9.990115943756569e-01
2.499749530669812e-01 2.499749530669812e-01 9.990040905631462e-01
2.499387035981928e-01 2.499387035981928e-01 9.990040907444890e-01
2.499128899199413e-01 3.499763736886112e-01 9.990038422863516e-01
4.499158125013639e-01 4.996350805396269e-02 9.990195900410874e-01
4.498982352444966e-01 4.995233724815235e-02 9.990195896161912e-01
4.499351458831691e-01 1.499266988644420e-01 9.990115936456695e-01
4.499195968822135e-01 1.499105252893224e-01 9.990115943756569e-01
2.498861027299413e-01 3.499503479067781e-01 9.990038434561475e-01
2.498309073483416e-01 -1.499384757246808e-01 9.990043362654255e-01
2.497373639832425e-01 -4.999724500911334e-02 9.990045743572289e-01
2.499234432301400e-01 4.499617116454870e-01 9.990035930493784e-01
2.499064506629447e-01 4.499507581701802e-01 9.990035944362772e-01
3.500215559900079e-01 -1.499451053692892e-01 9.990079692342598e-01
3.500288257096033e-01 -4.997057129491175e-02 9.990120971183500e-01
3.499763736886112e-01 2.499128899199412e-01 9.990038422863516e-01
3.499503479067783e-01 2.498861027299413e-01 9.990038434561475e-01
4.499645935227251e-01 -1.499557438368481e-01 9.990115923895130e-01
4.499538048858664e-01 -4.997895048470479e-02 9.990195916553090e-01
3.499390310090450e-01 3.499390310090449e-01 9.989997161090796e-01
3.499207649799339e-01 3.499207649799340e-01 9.989997176159678e-01
3.499442206746712e-01 4.499726986017420e-01 9.989955891132650e-01
3.499301283853700e-01 4.499636256323282e-01 9.989955906152108e-01
4.499617116454870e-01 2.499234432301400e-01 9.990035930493782e-01
4.499507581701802e-01 2.499064506629447e-01 9.990035944362772e-01
4.499726986017420e-01 3.499442206746713e-01 9.989955891132651e-01
4.499636256323281e-01 3.499301283853699e-01 9.989955906152107e-01
-4.499538048858664e-01 4.997895048470479e-02 9.990195916553090e-01
-4.499645935227251e-01 1.499557438368481e-01 9.990115923895131e-01
4.499719523520994e-01 4.499719523520994e-01 9.989875847077133e-01
-3.500288257096032e-01 4.997057129491181e-02 9.990120971183503e-01
-3.500215559900078e-01 1.499451053692892e-01 9.990079692342599e-01
-2.497373639832425e-01 4.999724500911346e-02 9.990045743572288e-01
-2.498309073483416e-01 1.499384757246808e-01 9.990043362654256e-01
4.499617158205902e-01 4.499617158205902e-01 9.989875863459716e-01
4.998098088303363e-02 2.494460709912913e-01 9.990045525482969e-01
4.996922010509938e-02 2.493246368942385e-01 9.990045434667516e-01
4.994645932402633e-02 3.500052829638083e-01 9.990120963477319e-01
2.497373639832425e-01 4.999724500911346e-02 9.990045743572289e-01
2.498309073483416e-01 1.499384757246809e-01 9.990043362654256e-01
4.996350805396271e-02 -4.499158125013639e-01 9.990195900410874e-01
4.995233724815234e-02 -4.498982352444966e-01 9.990195896161911e-01
4.994645932402633e-02 -3.500052829638083e-01 9.990120963477320e-01
4.993217610382078e-02 -3.499544508961513e-01 9.990120931237232e-01
-4.499804002775876e-01 2.499537413960387e-01 9.990035905782496e-01
-4.499865194917240e-01 3.499671746962103e-01 9.989955867061389e-01
-4.499844892817422e-01 4.499844892817421e-01 9.989875827011877e-01
-3.499922882476939e-01 2.499495094513016e-01 9.990038407354335e-01
-3.499645929677820e-01 3.499645929677821e-01 9.989997139998668e-01
-3.499671746962103e-01 4.499865194917240e-01 9.989955867061390e-01
-2.500048475872514e-01 2.500048475872515e-01 9.990040904128283e-01
-2.499495094513015e-01 3.499922882476939e-01 9.990038407354336e-01
-2.499537413960387e-01 4.499804002775877e-01 9.990035905782497e-01
-1.499384757246808e-01 2.498309073483416e-01 9.990043362654254e-01
-1.499451053692892e-01 3.500215559900079e-01 9.990079692342597e-01
-1.499557438368481e-01 4.499645935227252e-01 9.990115923895133e-01
-4.999724500911340e-02 2.497373639832425e-01 9.990045743572288e-01
-4.997057129491173e-02 3.500288257096032e-01 9.990120971183502e-01
-4.997895048470477e-02 4.499538048858664e-01 9.990195916553090e-01
4.998098088303363e-02 -2.494460709912912e-01 9.990045525482969e-01
4.996922010509938e-02 -2.493246368942385e-01 9.990045434667517e-01
1.499266988644419e-01 -4.499351458831691e-01 9.990115936456697e-01
1.499105252893224e-01 -4.499195968822136e-01 9.990115943756570e-01
1.499048201202388e-01 -3.500061525373144e-01 9.990079703386112e-01
1.498778319744359e-01 -3.499662129022330e-01 9.990079700033448e-01
1.498696557129301e-01 -2.496391024108384e-01 9.990043294736135e-01
1.498242527274107e-01 -2.495466637063499e-01 9.990043262253661e-01
2.499234432301401e-01 -4.499617116454870e-01 9.990035930493784e-01
2.499064506629447e-01 -4.499507581701800e-01 9.990035944362773e-01
2.499128899199413e-01 -3.499763736886112e-01 9.990038422863516e-01
2.498861027299414e-01 -3.499503479067783e-01 9.990038434561475e-01
2.499749530669812e-01 -2.499749530669812e-01 9.990040905631462e-01
2.499387035981928e-01 -2.499387035981928e-01 9.990040907444890e-01
3.499442206746712e-01 -4.499726986017419e-01 9.989955891132651e-01
3.499301283853700e-01 -4.499636256323281e-01 9.989955906152108e-01
3.499390310090449e-01 -3.499390310090449e-01 9.989997161090796e-01
3.499207649799340e-01 -3.499207649799339e-01 9.989997176159677e-01
3.499763736886112e-01 -2.499128899199411e-01 9.990038422863516e-01
-4.499158125013638e-01 4.996350805396274e-02 9.990195900410872e-01
-4.498982352444966e-01 4.995233724815235e-02 9.990195896161912e-01
-4.499351458831691e-01 1.499266988644420e-01 9.990115936456694e-01
-4.499195968822135e-01 1.499105252893224e-01 9.990115943756569e-01
3.499503479067783e-01 -2.498861027299412e-01 9.990038434561476e-01
4.499719523520993e-01 -4.499719523520993e-01 9.989875847077132e-01
4.499617158205902e-01 -4.499617158205902e-01 9.989875863459717e-01
4.499726986017422e-01 -3.499442206746712e-01 9.989955891132652e-01
-3.500052829638082e-01 4.994645932402633e-02 9.990120963477320e-01
-3.499544508961513e-01 4.993217610382077e-02 9.990120931237231e-01
-3.500061525373144e-01 1.499048201202388e-01 9.990079703386112e-01
-3.499662129022330e-01 1.498778319744359e-01 9.990079700033447e-01
4.499636256323282e-01 -3.499301283853698e-01 9.989955906152108e-01
4.499617116454870e-01 -2.499234432301400e-01 9.990035930493782e-01
4.499507581701802e-01 -2.499064506629447e-01 9.990035944362772e-01
-2.494460709912912e-01 4.998098088303365e-02 9.990045525482969e-01
-2.493246368942385e-01 4.996922010509941e-02 9.990045434667518e-01
-2.496391024108385e-01 1.498696557129302e-01 9.990043294736136e-01
-2.495466637063498e-01 1.498242527274107e-01 9.990043262253661e-01
3.500288257096032e-01 4.997057129491181e-02 9.990120971183503e-01
3.500215559900078e-01 1.499451053692892e-01 9.990079692342599e-01
4.993217610382078e-02 3.499544508961515e-01 9.990120931237232e-01
4.499538048858666e-01 4.997895048470483e-02 9.990195916553092e-01
4.499645935227251e-01 1.499557438368482e-01 9.990115923895131e-01
4.996350805396268e-02 4.499158125013639e-01 9.990195900410872e-01
4.995233724815229e-02 4.498982352444966e-01 9.990195896161912e-01
1.498696557129301e-01 2.496391024108386e-01 9.990043294736135e-01
2.494460709912913e-01 4.998098088303363e-02 9.990045525482969e-01
2.493246368942385e-01 4.996922010509935e-02 9.990045434667518e-01
2.496391024108385e-01 1.498696557129301e-01 9.990043294736135e-01
2.495466637063498e-01 1.498242527274106e-01 9.990043262253662e-01
1.498242527274106e-01 2.495466637063499e-01 9.990043262253661e-01
1.499048201202388e-01 3.500061525373144e-01 9.990079703386112e-01
4.999724500911348e-02 2.497373639832425e-01 9.990045743572288e-01
4.997057129491175e-02 3.500288257096033e-01 9.990120971183503e-01
4.997895048470477e-02 4.499538048858664e-01 9.990195916553088e-01
1.499384757246808e-01 2.498309073483416e-01 9.990043362654255e-01
1.499451053692892e-01 3.500215559900079e-01 9.990079692342598e-01
-4.499617116454870e-01 2.499234432301400e-01 9.990035930493784e-01
        </DataArray>
      </Points>

      <Cells>
        <DataArray type="Int32" Name="connectivity" format="ascii">

        </DataArray>
        <DataArray type="Int32" Name="offsets" format="ascii">

        </DataArray>
        <DataArray type="UInt8" Name="types" format="ascii">

        </DataArray>
      </Cells>

  <PointData>
        <DataArray type="Float64" Name="contact force" NumberOfComponents="3" format="ascii">
3.555702269445722e-06 3.555702269454692e-06 -9.651122429080548e-05
5.500789992030774e-06 1.043726729764520e-05 -1.987001443464618e-04
1.082712985913489e-05 1.681687192544176e-05 -3.357941359538496e-04
1.043726729764104e-05 5.500789992035527e-06 -1.987001443460062e-04
8.379922959177044e-06 8.379922959180353e-06 -1.832066927107704e-04
-1.952223259815874e-05 7.180652799628837e-06 -9.882655384913942e-05
1.681687192544157e-05 1.082712985913272e-05 -3.357941359538311e-04
7.180652799620730e-06 -1.952223259815602e-05 -9.882655384925058e-05
-1.842915882476125e-05 -1.842915882474648e-05 -4.922038525536807e-05
1.668046031916219e-05 1.949375631374351e-05 -4.734207975433460e-04
1.085539807502006e-05 -5.062254654459871e-05 7.383340932990737e-05
1.332050342496143e-06 5.781394188246385e-05 -4.375696571665790e-04
6.802930588051330e-06 2.749219797461315e-05 -5.970390454483887e-04
7.097872478434056e-06 -6.529141620614811e-05 2.014528439558921e-04
-4.363821709054548e-06 1.038370821971758e-04 -4.764165855318689e-04
-0.000000000000000e+00 -0.000000000000000e+00 -0.000000000000000e+00
2.676094958692339e-07 -5.202118319453511e-07 -2.201390301513855e-05
-0.000000000000000e+00 -0.000000000000000e+00 -0.000000000000000e+00
1.806461040703398e-07 -1.806461040708595e-07 -1.596853119597663e-05
-0.000000000000000e+00 -0.000000000000000e+00 -0.000000000000000e+00
-9.739643344352580e-07 -4.128754879650349e-07 -1.883657507056990e-05
-0.000000000000000e+00 -0.000000000000000e+00 -0.000000000000000e+00
4.198319681144290e-07 -4.198319681142255e-07 -2.366979782233599e-05
-0.000000000000000e+00 -0.000000000000000e+00 -0.000000000000000e+00
1.949375631375584e-05 1.668046031915598e-05 -4.734207975432084e-04
2.749219797462851e-05 6.802930588072478e-06 -5.970390454479806e-04
5.202118319452276e-07 -2.676094958698870e-07 -2.201390301514119e-05
-0.000000000000000e+00 -0.000000000000000e+00 -0.000000000000000e+00
-5.062254654458792e-05 1.085539807502211e-05 7.383340932936475e-05
-6.529141620614445e-05 7.097872478440570e-06 2.014528439570648e-04
-6.814443751783290e-07 6.814443751795756e-07 -2.111527727860152e-05
-0.000000000000000e+00 -0.000000000000000e+00 -0.000000000000000e+00
5.781394188245630e-05 1.332050342505738e-06 -4.375696571663661e-04
1.038370821971717e-04 -4.363821709056504e-06 -4.764165855310144e-04
4.128754879659456e-07 9.739643344351121e-07 -1.883657507057141e-05
-0.000000000000000e+00 -0.000000000000000e+00 -0.000000000000000e+00
8.367101746564720e-07 -5.684754519812226e-07 -3.209657215983062e-05
-0.000000000000000e+00 -0.000000000000000e+00 -0.000000000000000e+00
3.930404777790120e-07 -3.851232136441259e-06 -5.980982596351991e-05
-0.000000000000000e+00 -0.000000000000000e+00 -0.000000000000000e+00
6.232838527378552e-07 2.462321778672416e-06 -5.452247684568027e-06
-0.000000000000000e+00 -0.000000000000000e+00 -0.000000000000000e+00
8.298094823396155e-07 -1.080146545434141e-06 -4.264857562502339e-05
-0.000000000000000e+00 -0.000000000000000e+00 -0.000000000000000e+00
-1.588835866123796e-07 -6.462796492369885e-06 -6.953260815905114e-05
-0.000000000000000e+00 -0.000000000000000e+00 -0.000000000000000e+00
3.919960595355532e-07 3.125682192394951e-06 3.253001749352076e-06
-0.000000000000000e+00 -0.000000000000000e+00 -0.000000000000000e+00
3.368003076850390e-07 -1.538915088124924e-06 -5.145321324480518e-05
-0.000000000000000e+00 -0.000000000000000e+00 -0.000000000000000e+00
-1.668046031913575e-05 -1.949375631377617e-05 -4.734207975433515e-04
1.842915882473563e-05 1.842915882474811e-05 -4.922038525494294e-05
-7.180652799629822e-06 1.952223259816012e-05 -9.882655384910942e-05
-1.681687192543696e-05 -1.082712985914942e-05 -3.357941359537892e-04
-3.851232136441182e-06 3.930404777793970e-07 -5.980982596354758e-05
-0.000000000000000e+00 -0.000000000000000e+00 -0.000000000000000e+00
1.806461040703197e-07 1.806461040705802e-07 -1.596853119596653e-05
-0.000000000000000e+00 -0.000000000000000e+00 -0.000000000000000e+00
2.676094958690686e-07 5.202118319449779e-07 -2.201390301515010e-05
-0.000000000000000e+00 -0.000000000000000e+00 -0.000000000000000e+00
5.684754519797731e-07 8.367101746562241e-07 -3.209657215983150e-05
-0.000000000000000e+00 -0.000000000000000e+00 -0.000000000000000e+00
5.202118319447432e-07 2.676094958691815e-07 -2.201390301513900e-05
-0.000000000000000e+00 -0.000000000000000e+00 -0.000000000000000e+00
4.198319681138006e-07 4.198319681139437e-07 -2.366979782234248e-05
-0.000000000000000e+00 -0.000000000000000e+00 -0.000000000000000e+00
-9.739643344356057e-07 4.128754879653126e-07 -1.883657507058568e-05
-0.000000000000000e+00 -0.000000000000000e+00 -0.000000000000000e+00
8.367101746561255e-07 5.684754519797551e-07 -3.209657215983575e-05
-0.000000000000000e+00 -0.000000000000000e+00 -0.000000000000000e+00
4.128754879652438e-07 -9.739643344353079e-07 -1.883657507057851e-05
-0.000000000000000e+00 -0.000000000000000e+00 -0.000000000000000e+00
-6.814443751791496e-07 -6.814443751790112e-07 -2.111527727861441e-05
-0.000000000000000e+00 -0.000000000000000e+00 -0.000000000000000e+00
8.298094823395668e-07 1.080146545432398e-06 -4.264857562505548e-05
-0.000000000000000e+00 -0.000000000000000e+00 -0.000000000000000e+00
6.232838527375452e-07 -2.462321778673136e-06 -5.452247684588446e-06
-0.000000000000000e+00 -0.000000000000000e+00 -0.000000000000000e+00
3.930404777781726e-07 3.851232136441749e-06 -5.980982596352925e-05
-0.000000000000000e+00 -0.000000000000000e+00 -0.000000000000000e+00
3.368003076851491e-07 1.538915088123217e-06 -5.145321324483331e-05
-0.000000000000000e+00 -0.000000000000000e+00 -0.000000000000000e+00
3.919960595356628e-07 -3.125682192396100e-06 3.253001749358377e-06
-0.000000000000000e+00 -0.000000000000000e+00 -0.000000000000000e+00
-1.588835866126311e-07 6.462796492370115e-06 -6.953260815905623e-05
-0.000000000000000e+00 -0.000000000000000e+00 -0.000000000000000e+00
-6.462796492370054e-06 -1.588835866121517e-07 -6.953260815904629e-05
-0.000000000000000e+00 -0.000000000000000e+00 -0.000000000000000e+00
1.952223259815752e-05 -7.180652799630609e-06 -9.882655384917679e-05
-8.379922959187276e-06 -8.379922959173156e-06 -1.832066927109217e-04
-1.043726729765204e-05 -5.500789992043607e-06 -1.987001443460686e-04
-1.082712985915228e-05 -1.681687192545372e-05 -3.357941359531290e-04
2.462321778672633e-06 6.232838527380204e-07 -5.452247684585704e-06
-0.000000000000000e+00 -0.000000000000000e+00 -0.000000000000000e+00
3.125682192395028e-06 3.919960595357267e-07 3.253001749381844e-06
-0.000000000000000e+00 -0.000000000000000e+00 -0.000000000000000e+00
-5.500789992056683e-06 -1.043726729764705e-05 -1.987001443464317e-04
-3.555702269472663e-06 -3.555702269450704e-06 -9.651122429089953e-05
-0.000000000000000e+00 -0.000000000000000e+00 -0.000000000000000e+00
-8.298094823388597e-07 -1.080146545433972e-06 -4.264857562502700e-05
-1.080146545433734e-06 8.298094823394336e-07 -4.264857562503423e-05
1.080146545432536e-06 8.298094823393861e-07 -4.264857562502595e-05
-0.000000000000000e+00 -0.000000000000000e+00 -0.000000000000000e+00
1.538915088123550e-06 3.368003076857116e-07 -5.145321324480687e-05
-0.000000000000000e+00 -0.000000000000000e+00 -0.000000000000000e+00
-6.802930588058649e-06 2.749219797462607e-05 -5.970390454486324e-04
-7.097872478428207e-06 -6.529141620614355e-05 2.014528439558315e-04
4.363821709062712e-06 1.038370821971757e-04 -4.764165855318417e-04
-1.668046031913457e-05 1.949375631375650e-05 -4.734207975434320e-04
-2.462321778673144e-06 6.232838527376899e-07 -5.452247684583291e-06
-0.000000000000000e+00 -0.000000000000000e+00 -0.000000000000000e+00
-3.125682192396032e-06 3.919960595360960e-07 3.253001749381255e-06
-0.000000000000000e+00 -0.000000000000000e+00 -0.000000000000000e+00
-1.085539807500996e-05 -5.062254654459877e-05 7.383340933003040e-05
-1.332050342496550e-06 5.781394188246407e-05 -4.375696571663089e-04
-1.681687192543673e-05 1.082712985913279e-05 -3.357941359536131e-04
-7.180652799626083e-06 -1.952223259817603e-05 -9.882655384933282e-05
3.851232136441794e-06 3.930404777785029e-07 -5.980982596351484e-05
-0.000000000000000e+00 -0.000000000000000e+00 -0.000000000000000e+00
6.462796492370085e-06 -1.588835866123754e-07 -6.953260815902651e-05
-0.000000000000000e+00 -0.000000000000000e+00 -0.000000000000000e+00
1.842915882475591e-05 -1.842915882474030e-05 -4.922038525548191e-05
-1.043726729764845e-05 5.500789992026711e-06 -1.987001443453757e-04
-8.379922959176377e-06 8.379922959168494e-06 -1.832066927106608e-04
1.952223259817092e-05 7.180652799644497e-06 -9.882655384932868e-05
-3.555702269463483e-06 3.555702269449287e-06 -9.651122429042545e-05
-5.500789992040736e-06 1.043726729764349e-05 -1.987001443460100e-04
-1.082712985914836e-05 1.681687192544846e-05 -3.357941359537754e-04
-0.000000000000000e+00 -0.000000000000000e+00 -0.000000000000000e+00
-1.538915088124399e-06 3.368003076854659e-07 -5.145321324479801e-05
-0.000000000000000e+00 -0.000000000000000e+00 -0.000000000000000e+00
3.125682192394954e-06 -3.919960595357142e-07 3.253001749382926e-06
-0.000000000000000e+00 -0.000000000000000e+00 -0.000000000000000e+00
2.462321778672460e-06 -6.232838527374257e-07 -5.452247684579187e-06
-0.000000000000000e+00 -0.000000000000000e+00 -0.000000000000000e+00
-0.000000000000000e+00 -0.000000000000000e+00 -0.000000000000000e+00
6.814443751786904e-07 6.814443751790470e-07 -2.111527727859160e-05
-0.000000000000000e+00 -0.000000000000000e+00 -0.000000000000000e+00
-4.128754879652254e-07 9.739643344348347e-07 -1.883657507056028e-05
-1.538915088124292e-06 -3.368003076852938e-07 -5.145321324480473e-05
-0.000000000000000e+00 -0.000000000000000e+00 -0.000000000000000e+00
-1.080146545433460e-06 -8.298094823390858e-07 -4.264857562502896e-05
-0.000000000000000e+00 -0.000000000000000e+00 -0.000000000000000e+00
-0.000000000000000e+00 -0.000000000000000e+00 -0.000000000000000e+00
-5.781394188244999e-05 1.332050342528718e-06 -4.375696571665257e-04
-1.038370821971745e-04 -4.363821709045679e-06 -4.764165855316156e-04
-8.367101746557511e-07 -5.684754519809078e-07 -3.209657215981694e-05
-0.000000000000000e+00 -0.000000000000000e+00 -0.000000000000000e+00
5.062254654458755e-05 1.085539807503234e-05 7.383340932965171e-05
6.529141620611961e-05 7.097872478431295e-06 2.014528439572388e-04
9.739643344350172e-07 -4.128754879651963e-07 -1.883657507055151e-05
-0.000000000000000e+00 -0.000000000000000e+00 -0.000000000000000e+00
-1.949375631378158e-05 1.668046031915134e-05 -4.734207975428006e-04
-2.749219797463831e-05 6.802930588063201e-06 -5.970390454479508e-04
-4.198319681142895e-07 -4.198319681141599e-07 -2.366979782233692e-05
-0.000000000000000e+00 -0.000000000000000e+00 -0.000000000000000e+00
-5.202118319449085e-07 -2.676094958699372e-07 -2.201390301514108e-05
-0.000000000000000e+00 -0.000000000000000e+00 -0.000000000000000e+00
-5.684754519806413e-07 -8.367101746561967e-07 -3.209657215981597e-05
-0.000000000000000e+00 -0.000000000000000e+00 -0.000000000000000e+00
-2.676094958701291e-07 -5.202118319450950e-07 -2.201390301517488e-05
-0.000000000000000e+00 -0.000000000000000e+00 -0.000000000000000e+00
2.749219797462444e-05 -6.802930588054817e-06 -5.970390454480574e-04
1.949375631374964e-05 -1.668046031916071e-05 -4.734207975430654e-04
-1.806461040713680e-07 -1.806461040708621e-07 -1.596853119597041e-05
-6.529141620614963e-05 -7.097872478430602e-06 2.014528439562977e-04
-5.062254654459653e-05 -1.085539807502397e-05 7.383340932959203e-05
1.038370821971688e-04 4.363821709060019e-06 -4.764165855310796e-04
5.781394188246481e-05 -1.332050342496989e-06 -4.375696571666586e-04
-0.000000000000000e+00 -0.000000000000000e+00 -0.000000000000000e+00
1.588835866123808e-07 -6.462796492370164e-06 -6.953260815903961e-05
-0.000000000000000e+00 -0.000000000000000e+00 -0.000000000000000e+00
-3.919960595360133e-07 3.125682192394613e-06 3.253001749374064e-06
-1.038370821971773e-04 4.363821709057101e-06 -4.764165855316965e-04
-5.781394188246605e-05 -1.332050342515282e-06 -4.375696571666346e-04
-3.368003076856102e-07 1.538915088123493e-06 -5.145321324483611e-05
-0.000000000000000e+00 -0.000000000000000e+00 -0.000000000000000e+00
-3.919960595358615e-07 -3.125682192395984e-06 3.253001749365501e-06