<?xml version="1.0" ?> 
<!-- 
# vtk DataFile Version 3.0
-->
<VTKFile type="UnstructuredGrid" version="0.1" compressor="vtkZLibDataCompressor" byte_order="LittleEndian">
  <UnstructuredGrid>
    <FieldData>
      <DataArray type="Float64" Name="TIME" NumberOfTuples="1" format="ascii">
2.500000000000002e-01 
      </DataArray>
    </FieldData>

    <Piece NumberOfPoints="80" NumberOfCells="0" >
      <Points>
        <DataArray type="Float64" NumberOfComponents="3" format="ascii">
-1.500000000000000e-01 -1.500000000000000e-01 9.971672909074332e-01
-1.500000000000000e-01 -5.000000000000005e-02 9.971672909074332e-01
-1.500000000000000e-01 4.999999999999993e-02 9.971672909074332e-01
-1.500000000000000e-01 1.500000000000000e-01 9.971672909074332e-01
-5.000000000000006e-02 -1.500000000000000e-01 9.971672909074332e-01
-5.000000000000006e-02 -5.000000000000005e-02 9.971672909074332e-01
-5.000000000000006e-02 4.999999999999993e-02 9.971672909074332e-01
-5.000000000000006e-02 1.500000000000000e-01 9.971672909074332e-01
4.999999999999992e-02 -1.500000000000000e-01 9.971672909074332e-01
4.999999999999992e-02 -5.000000000000005e-02 9.971672909074332e-01
4.999999999999992e-02 4.999999999999993e-02 9.971672909074332e-01
4.999999999999992e-02 1.500000000000000e-01 9.971672909074332e-01
1.500000000000000e-01 -1.500000000000000e-01 9.971672909074332e-01
1.500000000000000e-01 -5.000000000000005e-02 9.971672909074332e-01
1.500000000000000e-01 4.999999999999993e-02 9.971672909074332e-01
1.500000000000000e-01 1.500000000000000e-01 9.971672909074332e-01
-1.500000000000000e-01 -1.500000000000000e-01 1.097167290907433e+00
-1.500000000000000e-01 -1.500000000000000e-01 1.197167290907433e+00
-1.500000000000000e-01 -1.500000000000000e-01 1.297167290907433e+00
-1.500000000000000e-01 -1.500000000000000e-01 1.397167290907433e+00
-1.500000000000000e-01 -5.000000000000005e-02 1.097167290907433e+00
-1.500000000000000e-01 -5.000000000000005e-02 1.197167290907433e+00
-1.500000000000000e-01 -5.000000000000005e-02 1.297167290907433e+00
-1.500000000000000e-01 -5.000000000000005e-02 1.397167290907433e+00
-1.500000000000000e-01 4.999999999999993e-02 1.097167290907433e+00
-1.500000000000000e-01 4.999999999999993e-02 1.197167290907433e+00
-1.500000000000000e-01 4.999999999999993e-02 1.297167290907433e+00
-1.500000000000000e-01 4.999999999999993e-02 1.397167290907433e+00
-1.500000000000000e-01 1.500000000000000e-01 1.097167290907433e+00
-1.500000000000000e-01 1.500000000000000e-01 1.197167290907433e+00
-1.500000000000000e-01 1.500000000000000e-01 1.297167290907433e+00
-1.500000000000000e-01 1.500000000000000e-01 1.397167290907433e+00
-5.000000000000006e-02 -1.500000000000000e-01 1.097167290907433e+00
-5.000000000000006e-02 -1.500000000000000e-01 1.197167290907433e+00
-5.000000000000006e-02 -1.500000000000000e-01 1.297167290907433e+00
-5.000000000000006e-02 -1.500000000000000e-01 1.397167290907433e+00
-5.000000000000006e-02 -5.000000000000005e-02 1.097167290907433e+00
-5.000000000000006e-02 -5.000000000000005e-02 1.197167290907433e+00
-5.000000000000006e-02 -5.000000000000005e-02 1.297167290907433e+00
-5.000000000000006e-02 -5.000000000000005e-02 1.397167290907433e+00
-5.000000000000006e-02 4.999999999999993e-02 1.097167290907433e+00
-5.000000000000006e-02 4.999999999999993e-02 1.197167290907433e+00
-5.000000000000006e-02 4.999999999999993e-02 1.297167290907433e+00
-5.000000000000006e-02 4.999999999999993e-02 1.397167290907433e+00
-5.000000000000006e-02 1.500000000000000e-01 1.097167290907433e+00
-5.000000000000006e-02 1.500000000000000e-01 1.197167290907433e+00
-5.000000000000006e-02 1.500000000000000e-01 1.297167290907433e+00
-5.000000000000006e-02 1.500000000000000e-01 1.397167290907433e+00
4.999999999999992e-02 -1.500000000000000e-01 1.097167290907433e+00
4.999999999999992e-02 -1.500000000000000e-01 1.197167290907433e+00
4.999999999999992e-02 -1.500000000000000e-01 1.297167290907433e+00
4.999999999999992e-02 -1.500000000000000e-01 1.397167290907433e+00
4.999999999999992e-02 -5.000000000000005e-02 1.097167290907433e+00
4.999999999999992e-02 -5.000000000000005e-02 1.197167290907433e+00
4.999999999999992e-02 -5.000000000000005e-02 1.297167290907433e+00
4.999999999999992e-02 -5.000000000000005e-02 1.397167290907433e+00
4.999999999999992e-02 4.999999999999993e-02 1.097167290907433e+00
4.999999999999992e-02 4.999999999999993e-02 1.197167290907433e+00
4.999999999999992e-02 4.999999999999993e-02 1.297167290907433e+00
4.999999999999992e-02 4.999999999999993e-02 1.397167290907433e+00
4.999999999999992e-02 1.500000000000000e-01 1.097167290907433e+00
4.999999999999992e-02 1.500000000000000e-01 1.197167290907433e+00
4.999999999999992e-02 1.500000000000000e-01 1.297167290907433e+00
4.999999999999992e-02 1.500000000000000e-01 1.397167290907433e+00
1.500000000000000e-01 -1.500000000000000e-01 1.097167290907433e+00
1.500000000000000e-01 -1.500000000000000e-01 1.197167290907433e+00
1.500000000000000e-01 -1.500000000000000e-01 1.297167290907433e+00
1.500000000000000e-01 -1.500000000000000e-01 1.397167290907433e+00
1.500000000000000e-01 -5.000000000000005e-02 1.097167290907433e+00
1.500000000000000e-01 -5.000000000000005e-02 1.197167290907433e+00
1.500000000000000e-01 -5.000000000000005e-02 1.297167290907433e+00
1.500000000000000e-01 -5.000000000000005e-02 1.397167290907433e+00
1.500000000000000e-01 4.999999999999993e-02 1.097167290907433e+00
1.500000000000000e-01 4.999999999999993e-02 1.197167290907433e+00
1.500000000000000e-01 4.999999999999993e-02 1.297167290907433e+00
1.500000000000000e-01 4.999999999999993e-02 1.397167290907433e+00
1.500000000000000e-01 1.500000000000000e-01 1.097167290907433e+00
1.500000000000000e-01 1.500000000000000e-01 1.197167290907433e+00
1.500000000000000e-01 1.500000000000000e-01 1.297167290907433e+00
1.500000000000000e-01 1.500000000000000e-01 1.397167290907433e+00
        </DataArray>
      </Points>

      <Cells>
        <DataArray type="Int32" Name="connectivity" format="ascii">

        </DataArray>
        <DataArray type="Int32" Name="offsets" format="ascii">

        </DataArray>
        <DataArray type="UInt8" Name="types" format="ascii">

        </DataArray>
      </Cells>

  <PointData>
        <DataArray type="Float64" Name="acceleration" NumberOfComponents="3" format="ascii">
-5.986859329921379e-14 -1.051279960233583e-14 -6.356012211492516e-02
-6.090108005104420e-14 -1.051279960233583e-14 -6.356012211492384e-02
-6.193356680287463e-14 -1.051279960233583e-14 -6.356012211492253e-02
-6.296605355470506e-14 -1.051279960233583e-14 -6.356012211492121e-02
-5.986859329921379e-14 -9.480312850505404e-15 -6.356012211494032e-02
-6.090108005104420e-14 -9.480312850505404e-15 -6.356012211493900e-02
-6.193356680287463e-14 -9.480312850505404e-15 -6.356012211493768e-02
-6.296605355470506e-14 -9.480312850505404e-15 -6.356012211493635e-02
-5.986859329921379e-14 -8.447826098674983e-15 -6.356012211495547e-02
-6.090108005104420e-14 -8.447826098674983e-15 -6.356012211495414e-02
-6.193356680287463e-14 -8.447826098674985e-15 -6.356012211495282e-02
-6.296605355470506e-14 -8.447826098674985e-15 -6.356012211495150e-02
-5.986859329921379e-14 -7.415339346844562e-15 -6.356012211497061e-02
-6.090108005104420e-14 -7.415339346844564e-15 -6.356012211496929e-02
-6.193356680287463e-14 -7.415339346844564e-15 -6.356012211496798e-02
-6.296605355470506e-14 -7.415339346844564e-15 -6.356012211496666e-02
-4.471924920043777e-14 -1.183463461962719e-14 -6.356012211492516e-02
-2.956990510166173e-14 -1.315646963691855e-14 -6.356012211492516e-02
-1.442056100288568e-14 -1.447830465420992e-14 -6.356012211492516e-02
7.287830958903223e-16 -1.580013967150129e-14 -6.356012211492516e-02
-4.575173595226819e-14 -1.183463461962719e-14 -6.356012211492384e-02
-3.060239185349215e-14 -1.315646963691856e-14 -6.356012211492384e-02
-1.545304775471611e-14 -1.447830465420992e-14 -6.356012211492384e-02
-3.037036559400926e-16 -1.580013967150129e-14 -6.356012211492384e-02
-4.678422270409862e-14 -1.183463461962719e-14 -6.356012211492253e-02
-3.163487860532257e-14 -1.315646963691856e-14 -6.356012211492253e-02
-1.648553450654653e-14 -1.447830465420992e-14 -6.356012211492253e-02
-1.336190407770514e-15 -1.580013967150129e-14 -6.356012211492253e-02
-4.781670945592904e-14 -1.183463461962719e-14 -6.356012211492121e-02
-3.266736535715300e-14 -1.315646963691856e-14 -6.356012211492121e-02
-1.751802125837695e-14 -1.447830465420992e-14 -6.356012211492121e-02
-2.368677159600941e-15 -1.580013967150129e-14 -6.356012211492121e-02
-4.471924920043777e-14 -1.080214786779677e-14 -6.356012211494032e-02
-2.956990510166173e-14 -1.212398288508813e-14 -6.356012211494032e-02
-1.442056100288569e-14 -1.344581790237950e-14 -6.356012211494032e-02
7.287830958903213e-16 -1.476765291967086e-14 -6.356012211494032e-02
-4.575173595226819e-14 -1.080214786779677e-14 -6.356012211493900e-02
-3.060239185349215e-14 -1.212398288508813e-14 -6.356012211493900e-02
-1.545304775471611e-14 -1.344581790237950e-14 -6.356012211493900e-02
-3.037036559400936e-16 -1.476765291967086e-14 -6.356012211493900e-02
-4.678422270409862e-14 -1.080214786779677e-14 -6.356012211493768e-02
-3.163487860532257e-14 -1.212398288508813e-14 -6.356012211493768e-02
-1.648553450654653e-14 -1.344581790237950e-14 -6.356012211493768e-02
-1.336190407770515e-15 -1.476765291967086e-14 -6.356012211493768e-02
-4.781670945592904e-14 -1.080214786779677e-14 -6.356012211493635e-02
-3.266736535715300e-14 -1.212398288508813e-14 -6.356012211493635e-02
-1.751802125837695e-14 -1.344581790237950e-14 -6.356012211493635e-02
-2.368677159600942e-15 -1.476765291967086e-14 -6.356012211493635e-02
-4.471924920043777e-14 -9.769661115966348e-15 -6.356012211495547e-02
-2.956990510166173e-14 -1.109149613325771e-14 -6.356012211495547e-02
-1.442056100288569e-14 -1.241333115054908e-14 -6.356012211495547e-02
7.287830958903203e-16 -1.373516616784044e-14 -6.356012211495547e-02
-4.575173595226819e-14 -9.769661115966348e-15 -6.356012211495414e-02
-3.060239185349215e-14 -1.109149613325771e-14 -6.356012211495414e-02
-1.545304775471611e-14 -1.241333115054908e-14 -6.356012211495414e-02
-3.037036559400947e-16 -1.373516616784044e-14 -6.356012211495414e-02
-4.678422270409862e-14 -9.769661115966348e-15 -6.356012211495282e-02
-3.163487860532257e-14 -1.109149613325771e-14 -6.356012211495282e-02
-1.648553450654653e-14 -1.241333115054908e-14 -6.356012211495282e-02
-1.336190407770516e-15 -1.373516616784044e-14 -6.356012211495282e-02
-4.781670945592904e-14 -9.769661115966348e-15 -6.356012211495150e-02
-3.266736535715300e-14 -1.109149613325771e-14 -6.356012211495150e-02
-1.751802125837695e-14 -1.241333115054908e-14 -6.356012211495150e-02
-2.368677159600943e-15 -1.373516616784044e-14 -6.356012211495150e-02
-4.471924920043777e-14 -8.737174364135925e-15 -6.356012211497061e-02
-2.956990510166173e-14 -1.005900938142729e-14 -6.356012211497061e-02
-1.442056100288569e-14 -1.138084439871866e-14 -6.356012211497061e-02
7.287830958903192e-16 -1.270267941601002e-14 -6.356012211497061e-02
-4.575173595226819e-14 -8.737174364135925e-15 -6.356012211496929e-02
-3.060239185349215e-14 -1.005900938142729e-14 -6.356012211496929e-02
-1.545304775471611e-14 -1.138084439871866e-14 -6.356012211496929e-02
-3.037036559400958e-16 -1.270267941601002e-14 -6.356012211496929e-02
-4.678422270409862e-14 -8.737174364135927e-15 -6.356012211496798e-02
-3.163487860532257e-14 -1.005900938142729e-14 -6.356012211496798e-02
-1.648553450654653e-14 -1.138084439871866e-14 -6.356012211496798e-02
-1.336190407770517e-15 -1.270267941601002e-14 -6.356012211496798e-02
-4.781670945592904e-14 -8.737174364135927e-15 -6.356012211496666e-02
-3.266736535715300e-14 -1.005900938142729e-14 -6.356012211496666e-02
-1.751802125837695e-14 -1.138084439871866e-14 -6.356012211496666e-02
-2.368677159600945e-15 -1.270267941601002e-14 -6.356012211496666e-02
        </DataArray>
        <DataArray type="Float64" Name="body frame relative position" NumberOfComponents="3" format="ascii">
-1.500000000000000e-01 -1.500000000000000e-01 -2.000000000000000e-01
-1.500000000000000e-01 -5.000000000000002e-02 -2.000000000000000e-01
-1.500000000000000e-01 4.999999999999996e-02 -2.000000000000000e-01
-1.500000000000000e-01 1.500000000000001e-01 -2.000000000000000e-01
-5.000000000000002e-02 -1.500000000000000e-01 -2.000000000000000e-01
-5.000000000000002e-02 -5.000000000000002e-02 -2.000000000000000e-01
-5.000000000000002e-02 4.999999999999996e-02 -2.000000000000000e-01
-5.000000000000002e-02 1.500000000000001e-01 -2.000000000000000e-01
4.999999999999995e-02 -1.500000000000000e-01 -2.000000000000000e-01
4.999999999999995e-02 -5.000000000000002e-02 -2.000000000000000e-01
4.999999999999995e-02 4.999999999999996e-02 -2.000000000000000e-01
4.999999999999995e-02 1.500000000000001e-01 -2.000000000000000e-01
1.500000000000001e-01 -1.500000000000000e-01 -2.000000000000000e-01
1.500000000000001e-01 -5.000000000000002e-02 -2.000000000000000e-01
1.500000000000001e-01 4.999999999999996e-02 -2.000000000000000e-01
1.500000000000001e-01 1.500000000000001e-01 -2.000000000000000e-01
-1.500000000000000e-01 -1.500000000000000e-01 -1.000000000000001e-01
-1.500000000000000e-01 -1.500000000000000e-01 0.000000000000000e+00
-1.500000000000000e-01 -1.500000000000000e-01 1.000000000000001e-01
-1.500000000000000e-01 -1.500000000000000e-01 2.000000000000000e-01
-1.500000000000000e-01 -5.000000000000002e-02 -1.000000000000001e-01
-1.500000000000000e-01 -5.000000000000002e-02 0.000000000000000e+00
-1.500000000000000e-01 -5.000000000000002e-02 1.000000000000001e-01
-1.500000000000000e-01 -5.000000000000002e-02 2.000000000000000e-01
-1.500000000000000e-01 4.999999999999996e-02 -1.000000000000001e-01
-1.500000000000000e-01 4.999999999999996e-02 0.000000000000000e+00
-1.500000000000000e-01 4.999999999999996e-02 1.000000000000001e-01
-1.500000000000000e-01 4.999999999999996e-02 2.000000000000000e-01
-1.500000000000000e-01 1.500000000000001e-01 -1.000000000000001e-01
-1.500000000000000e-01 1.500000000000001e-01 0.000000000000000e+00
-1.500000000000000e-01 1.500000000000001e-01 1.000000000000001e-01
-1.500000000000000e-01 1.500000000000001e-01 2.000000000000000e-01
-5.000000000000002e-02 -1.500000000000000e-01 -1.000000000000001e-01
-5.000000000000002e-02 -1.500000000000000e-01 0.000000000000000e+00
-5.000000000000002e-02 -1.500000000000000e-01 1.000000000000001e-01
-5.000000000000002e-02 -1.500000000000000e-01 2.000000000000000e-01
-5.000000000000002e-02 -5.000000000000002e-02 -1.000000000000001e-01
-5.000000000000002e-02 -5.000000000000002e-02 0.000000000000000e+00
-5.000000000000002e-02 -5.000000000000002e-02 1.000000000000001e-01
-5.000000000000002e-02 -5.000000000000002e-02 2.000000000000000e-01
-5.000000000000002e-02 4.999999999999996e-02 -1.000000000000001e-01
-5.000000000000002e-02 4.999999999999996e-02 0.000000000000000e+00
-5.000000000000002e-02 4.999999999999996e-02 1.000000000000001e-01
-5.000000000000002e-02 4.999999999999996e-02 2.000000000000000e-01
-5.000000000000002e-02 1.500000000000001e-01 -1.000000000000001e-01
-5.000000000000002e-02 1.500000000000001e-01 0.000000000000000e+00
-5.000000000000002e-02 1.500000000000001e-01 1.000000000000001e-01
-5.000000000000002e-02 1.500000000000001e-01 2.000000000000000e-01
4.999999999999995e-02 -1.500000000000000e-01 -1.000000000000001e-01
4.999999999999995e-02 -1.500000000000000e-01 0.000000000000000e+00
4.999999999999995e-02 -1.500000000000000e-01 1.000000000000001e-01
4.999999999999995e-02 -1.500000000000000e-01 2.000000000000000e-01
4.999999999999995e-02 -5.000000000000002e-02 -1.000000000000001e-01
4.999999999999995e-02 -5.000000000000002e-02 0.000000000000000e+00
4.999999999999995e-02 -5.000000000000002e-02 1.000000000000001e-01
4.999999999999995e-02 -5.000000000000002e-02 2.000000000000000e-01
4.999999999999995e-02 4.999999999999996e-02 -1.000000000000001e-01
4.999999999999995e-02 4.999999999999996e-02 0.000000000000000e+00
4.999999999999995e-02 4.999999999999996e-02 1.000000000000001e-01
4.999999999999995e-02 4.999999999999996e-02 2.000000000000000e-01
4.999999999999995e-02 1.500000000000001e-01 -1.000000000000001e-01
4.999999999999995e-02 1.500000000000001e-01 0.000000000000000e+00
4.999999999999995e-02 1.500000000000001e-01 1.000000000000001e-01
4.999999999999995e-02 1.500000000000001e-01 2.000000000000000e-01
1.500000000000001e-01 -1.500000000000000e-01 -1.000000000000001e-01
1.500000000000001e-01 -1.500000000000000e-01 0.000000000000000e+00
1.500000000000001e-01 -1.500000000000000e-01 1.000000000000001e-01
1.500000000000001e-01 -1.500000000000000e-01 2.000000000000000e-01
1.500000000000001e-01 -5.000000000000002e-02 -1.000000000000001e-01
1.500000000000001e-01 -5.000000000000002e-02 0.000000000000000e+00
1.500000000000001e-01 -5.000000000000002e-02 1.000000000000001e-01
1.500000000000001e-01 -5.000000000000002e-02 2.000000000000000e-01
1.500000000000001e-01 4.999999999999996e-02 -1.000000000000001e-01
1.500000000000001e-01 4.999999999999996e-02 0.000000000000000e+00
1.500000000000001e-01 4.999999999999996e-02 1.000000000000001e-01
1.500000000000001e-01 4.999999999999996e-02 2.000000000000000e-01
1.500000000000001e-01 1.500000000000001e-01 -1.000000000000001e-01
1.500000000000001e-01 1.500000000000001e-01 0.000000000000000e+00
1.500000000000001e-01 1.500000000000001e-01 1.000000000000001e-01
1.500000000000001e-01 1.500000000000001e-01 2.000000000000000e-01
        </DataArray>
        <DataArray type="Float64" Name="boundary pressure" format="ascii">
0.000000000000000e+00
0.000000000000000e+00
0.000000000000000e+00
0.000000000000000e+00
0.000000000000000e+00
0.000000000000000e+00
0.000000000000000e+00
0.000000000000000e+00
0.000000000000000e+00
0.000000000000000e+00
0.000000000000000e+00
0.000000000000000e+00
0.000000000000000e+00
0.000000000000000e+00
0.000000000000000e+00
0.000000000000000e+00
0.000000000000000e+00
0.000000000000000e+00
0.000000000000000e+00
0.000000000000000e+00
0.000000000000000e+00
0.000000000000000e+00
0.000000000000000e+00
0.000000000000000e+00
0.000000000000000e+00
0.000000000000000e+00
0.000000000000000e+00
0.000000000000000e+00
0.000000000000000e+00
0.000000000000000e+00
0.000000000000000e+00
0.000000000000000e+00
0.000000000000000e+00
0.000000000000000e+00
0.000000000000000e+00
0.000000000000000e+00
0.000000000000000e+00
0.000000000000000e+00
0.000000000000000e+00
0.000000000000000e+00
0.000000000000000e+00
0.000000000000000e+00
0.000000000000000e+00
0.000000000000000e+00
0.000000000000000e+00
0.000000000000000e+00
0.000000000000000e+00
0.000000000000000e+00
0.000000000000000e+00
0.000000000000000e+00
0.000000000000000e+00
0.000000000000000e+00
0.000000000000000e+00
0.000000000000000e+00
0.000000000000000e+00
0.000000000000000e+00
0.000000000000000e+00
0.000000000000000e+00
0.000000000000000e+00
0.000000000000000e+00
0.000000000000000e+00
0.000000000000000e+00
0.000000000000000e+00
0.000000000000000e+00
0.000000000000000e+00
0.000000000000000e+00
0.000000000000000e+00
0.000000000000000e+00
0.000000000000000e+00
0.000000000000000e+00
0.000000000000000e+00
0.000000000000000e+00
0.000000000000000e+00
0.000000000000000e+00
0.000000000000000e+00
0.000000000000000e+00
0.000000000000000e+00
0.000000000000000e+00
0.000000000000000e+00
0.000000000000000e+00
        </DataArray>
        <DataArray type="Float64" Name="boundary velocity" NumberOfComponents="3" format="ascii">
0.000000000000000e+00 0.000000000000000e+00 0.000000000000000e+00
0.000000000000000e+00 0.000000000000000e+00 0.000000000000000e+00
0.000000000000000e+00 0.000000000000000e+00 0.000000000000000e+00
0.000000000000000e+00 0.000000000000000e+00 0.000000000000000e+00
0.000000000000000e+00 0.000000000000000e+00 0.000000000000000e+00
0.000000000000000e+00 0.000000000000000e+00 0.000000000000000e+00
0.000000000000000e+00 0.000000000000000e+00 0.000000000000000e+00
0.000000000000000e+00 0.000000000000000e+00 0.000000000000000e+00
0.000000000000000e+00 0.000000000000000e+00 0.000000000000000e+00
0.000000000000000e+00 0.000000000000000e+00 0.000000000000000e+00
0.000000000000000e+00 0.000000000000000e+00 0.000000000000000e+00
0.000000000000000e+00 0.000000000000000e+00 0.000000000000000e+00
0.000000000000000e+00 0.000000000000000e+00 0.000000000000000e+00
0.000000000000000e+00 0.000000000000000e+00 0.000000000000000e+00
0.000000000000000e+00 0.000000000000000e+00 0.000000000000000e+00
0.000000000000000e+00 0.000000000000000e+00 0.000000000000000e+00
0.000000000000000e+00 0.000000000000000e+00 0.000000000000000e+00
0.000000000000000e+00 0.000000000000000e+00 0.000000000000000e+00
0.000000000000000e+00 0.000000000000000e+00 0.000000000000000e+00
0.000000000000000e+00 0.000000000000000e+00 0.000000000000000e+00
0.000000000000000e+00 0.000000000000000e+00 0.000000000000000e+00
0.000000000000000e+00 0.000000000000000e+00 0.000000000000000e+00
0.000000000000000e+00 0.000000000000000e+00 0.000000000000000e+00
0.000000000000000e+00 0.000000000000000e+00 0.000000000000000e+00
0.000000000000000e+00 0.000000000000000e+00 0.000000000000000e+00
0.000000000000000e+00 0.000000000000000e+00 0.000000000000000e+00
0.000000000000000e+00 0.000000000000000e+00 0.000000000000000e+00
0.000000000000000e+00 0.000000000000000e+00 0.000000000000000e+00
0.000000000000000e+00 0.000000000000000e+00 0.000000000000000e+00
0.000000000000000e+00 0.000000000000000e+00 0.000000000000000e+00
0.000000000000000e+00 0.000000000000000e+00 0.000000000000000e+00
0.000000000000000e+00 0.000000000000000e+00 0.000000000000000e+00
0.000000000000000e+00 0.000000000000000e+00 0.000000000000000e+00
0.000000000000000e+00 0.000000000000000e+00 0.000000000000000e+00
0.000000000000000e+00 0.000000000000000e+00 0.000000000000000e+00
0.000000000000000e+00 0.000000000000000e+00 0.000000000000000e+00
0.000000000000000e+00 0.000000000000000e+00 0.000000000000000e+00
0.000000000000000e+00 0.000000000000000e+00 0.000000000000000e+00
0.000000000000000e+00 0.000000000000000e+00 0.000000000000000e+00
0.000000000000000e+00 0.000000000000000e+00 0.000000000000000e+00
0.000000000000000e+00 0.000000000000000e+00 0.000000000000000e+00
0.000000000000000e+00 0.000000000000000e+00 0.000000000000000e+00
0.000000000000000e+00 0.000000000000000e+00 0.000000000000000e+00
0.000000000000000e+00 0.000000000000000e+00 0.000000000000000e+00
0.000000000000000e+00 0.000000000000000e+00 0.000000000000000e+00
0.000000000000000e+00 0.000000000000000e+00 0.000000000000000e+00
0.000000000000000e+00 0.000000000000000e+00 0.000000000000000e+00
0.000000000000000e+00 0.000000000000000e+00 0.000000000000000e+00
0.000000000000000e+00 0.000000000000000e+00 0.000000000000000e+00
0.000000000000000e+00 0.000000000000000e+00 0.000000000000000e+00
0.000000000000000e+00 0.000000000000000e+00 0.000000000000000e+00
0.000000000000000e+00 0.000000000000000e+00 0.000000000000000e+00
0.000000000000000e+00 0.000000000000000e+00 0.000000000000000e+00
0.000000000000000e+00 0.000000000000000e+00 0.000000000000000e+00
0.000000000000000e+00 0.000000000000000e+00 0.000000000000000e+00
0.000000000000000e+00 0.000000000000000e+00 0.000000000000000e+00
0.000000000000000e+00 0.000000000000000e+00 0.000000000000000e+00
0.000000000000000e+00 0.000000000000000e+00 0.000000000000000e+00
0.000000000000000e+00 0.000000000000000e+00 0.000000000000000e+00
0.000000000000000e+00 0.000000000000000e+00 0.000000000000000e+00
0.000000000000000e+00 0.000000000000000e+00 0.000000000000000e+00
0.000000000000000e+00 0.000000000000000e+00 0.000000000000000e+00
0.000000000000000e+00 0.000000000000000e+00 0.000000000000000e+00
0.000000000000000e+00 0.000000000000000e+00 0.000000000000000e+00
0.000000000000000e+00 0.000000000000000e+00 0.000000000000000e+00
0.000000000000000e+00 0.000000000000000e+00 0.000000000000000e+00
0.000000000000000e+00 0.000000000000000e+00 0.000000000000000e+00
0.000000000000000e+00 0.000000000000000e+00 0.000000000000000e+00
0.000000000000000e+00 0.000000000000000e+00 0.000000000000000e+00
0.000000000000000e+00 0.000000000000000e+00 0.000000000000000e+00
0.000000000000000e+00 0.000000000000000e+00 0.000000000000000e+00
0.000000000000000e+00 0.000000000000000e+00 0.000000000000000e+00
0.000000000000000e+00 0.000000000000000e+00 0.000000000000000e+00
0.000000000000000e+00 0.000000000000000e+00 0.000000000000000e+00
0.000000000000000e+00 0.000000000000000e+00 0.000000000000000e+00
0.000000000000000e+00 0.000000000000000e+00 0.000000000000000e+00
0.000000000000000e+00 0.000000000000000e+00 0.000000000000000e+00
0.000000000000000e+00 0.000000000000000e+00 0.000000000000000e+00
0.000000000000000e+00 0.000000000000000e+00 0.000000000000000e+00
0.000000000000000e+00 0.000000000000000e+00 0.000000000000000e+00
        </DataArray>
        <DataArray type="Float64" Name="force" NumberOfComponents="3" format="ascii">
1.616274915700266e-03 1.616274915700384e-03 3.951968923095204e-02
-3.224095046739748e-03 1.494287690144662e-04 -9.282253819799057e-04
-3.224095046739828e-03 -1.494287690143810e-04 -9.282253819799147e-04
1.616274915700045e-03 -1.616274915700290e-03 3.951968923095203e-02
1.494287690145771e-04 -3.224095046739575e-03 -9.282253819799018e-04
-2.861490924363235e-04 -2.861490924364571e-04 -8.177673749765545e-05
-2.861490924363319e-04 2.861490924364689e-04 -8.177673749765694e-05
1.494287690145539e-04 3.224095046739660e-03 -9.282253819799388e-04
-1.494287690144629e-04 -3.224095046739569e-03 -9.282253819799303e-04
2.861490924364573e-04 -2.861490924364597e-04 -8.177673749765660e-05
2.861490924364528e-04 2.861490924364624e-04 -8.177673749765809e-05
-1.494287690144800e-04 3.224095046739604e-03 -9.282253819799633e-04
-1.616274915700335e-03 1.616274915700389e-03 3.951968923095096e-02
3.224095046739557e-03 1.494287690144472e-04 -9.282253819799204e-04
3.224095046739517e-03 -1.494287690144556e-04 -9.282253819799370e-04
-1.616274915700349e-03 -1.616274915700276e-03 3.951968923095089e-02
-1.690079420992180e-03 -1.690079420992029e-03 -4.469835610147697e-03
-1.480482167011418e-03 -1.480482167011147e-03 -3.685461219113269e-03
-1.118885826401373e-03 -1.118885826401164e-03 -3.685681195693644e-03
-2.575676641480481e-04 -2.575676641480620e-04 -3.735808687923491e-03
-3.040724479628257e-03 1.737801793737110e-05 -2.882187556322934e-03
-2.086477694293908e-03 -1.196588895734940e-04 -2.207416678190627e-03
-1.063753163144879e-03 -1.947019425841017e-04 -2.239026101146761e-03
3.024546599786385e-04 -2.951646983576093e-04 -2.879637697540270e-03
-3.040724479628271e-03 -1.737801793736040e-05 -2.882187556323000e-03
-2.086477694293857e-03 1.196588895734346e-04 -2.207416678190641e-03
-1.063753163144818e-03 1.947019425840295e-04 -2.239026101146755e-03
3.024546599786712e-04 2.951646983576103e-04 -2.879637697540205e-03
-1.690079420992314e-03 1.690079420992073e-03 -4.469835610147884e-03
-1.480482167011379e-03 1.480482167011142e-03 -3.685461219113339e-03
-1.118885826401280e-03 1.118885826401134e-03 -3.685681195693635e-03
-2.575676641480648e-04 2.575676641480246e-04 -3.735808687923334e-03
1.737801793748034e-05 -3.040724479628072e-03 -2.882187556322944e-03
-1.196588895733823e-04 -2.086477694293615e-03 -2.207416678190673e-03
-1.947019425839786e-04 -1.063753163144660e-03 -2.239026101146644e-03
-2.951646983574484e-04 3.024546599786452e-04 -2.879637697540104e-03
-2.492114743415384e-04 -2.492114743416747e-04 -2.316215615283623e-04
-1.741781622017777e-04 -1.741781622019021e-04 -1.637744117950839e-04
-9.103852898704376e-05 -9.103852898717599e-05 -2.536140172816548e-04
-1.609311831768967e-04 -1.609311831770899e-04 -2.210331401908724e-03
-2.492114743415377e-04 2.492114743416673e-04 -2.316215615283695e-04
-1.741781622017729e-04 1.741781622018918e-04 -1.637744117950826e-04
-9.103852898703921e-05 9.103852898716517e-05 -2.536140172816599e-04
-1.609311831769478e-04 1.609311831770379e-04 -2.210331401908770e-03
1.737801793747266e-05 3.040724479628016e-03 -2.882187556323059e-03
-1.196588895733865e-04 2.086477694293540e-03 -2.207416678190661e-03
-1.947019425839779e-04 1.063753163144589e-03 -2.239026101146684e-03
-2.951646983575459e-04 -3.024546599787577e-04 -2.879637697540176e-03
-1.737801793742408e-05 -3.040724479627996e-03 -2.882187556322979e-03
1.196588895734440e-04 -2.086477694293559e-03 -2.207416678190650e-03
1.947019425840513e-04 -1.063753163144608e-03 -2.239026101146662e-03
2.951646983575807e-04 3.024546599787432e-04 -2.879637697540059e-03
2.492114743416679e-04 -2.492114743416661e-04 -2.316215615283660e-04
1.741781622018902e-04 -1.741781622018978e-04 -1.637744117950858e-04
9.103852898716732e-05 -9.103852898717250e-05 -2.536140172816516e-04
1.609311831770688e-04 -1.609311831771137e-04 -2.210331401908719e-03
2.492114743416622e-04 2.492114743416586e-04 -2.316215615283692e-04
1.741781622018835e-04 1.741781622018860e-04 -1.637744117950863e-04
9.103852898716107e-05 9.103852898715880e-05 -2.536140172816576e-04
1.609311831770740e-04 1.609311831770250e-04 -2.210331401908814e-03
-1.737801793742952e-05 3.040724479627926e-03 -2.882187556323065e-03
1.196588895734445e-04 2.086477694293449e-03 -2.207416678190658e-03
1.947019425840533e-04 1.063753163144505e-03 -2.239026101146683e-03
2.951646983576152e-04 -3.024546599788234e-04 -2.879637697540208e-03
1.690079420991986e-03 -1.690079420991919e-03 -4.469835610147765e-03
1.480482167011091e-03 -1.480482167011095e-03 -3.685461219113316e-03
1.118885826401093e-03 -1.118885826401074e-03 -3.685681195693547e-03
2.575676641479983e-04 -2.575676641478846e-04 -3.735808687923205e-03
3.040724479628018e-03 1.737801793738317e-05 -2.882187556323005e-03
2.086477694293510e-03 -1.196588895735026e-04 -2.207416678190706e-03
1.063753163144587e-03 -1.947019425841010e-04 -2.239026101146606e-03
-3.024546599786560e-04 -2.951646983576470e-04 -2.879637697540077e-03
3.040724479627960e-03 -1.737801793741715e-05 -2.882187556323015e-03
2.086477694293451e-03 1.196588895734688e-04 -2.207416678190708e-03
1.063753163144535e-03 1.947019425840666e-04 -2.239026101146604e-03
-3.024546599786591e-04 2.951646983575790e-04 -2.879637697540121e-03
1.690079420991894e-03 1.690079420991824e-03 -4.469835610147863e-03
1.480482167011073e-03 1.480482167011025e-03 -3.685461219113265e-03