<?xml version="1.0" ?> 
<!-- 
# vtk DataFile Version 3.0
-->
<VTKFile type="UnstructuredGrid" version="0.1" compressor="vtkZLibDataCompressor" byte_order="LittleEndian">
  <UnstructuredGrid>
    <FieldData>
      <DataArray type="Float64" Name="TIME" NumberOfTuples="1" format="ascii">
1.875000000000001e-01 
      </DataArray>
    </FieldData>

    <Piece NumberOfPoints="420" NumberOfCells="0" >
      <Points>
        <DataArray type="Float64" NumberOfComponents="3" format="ascii">
-4.502192108629756e-01 -4.502192108629757e-01 1.033980992575265e+00
-4.494514898247472e-01 -3.498594499720047e-01 1.034975723298015e+00
-4.486054629051433e-01 -2.496874620697929e-01 1.035854523069591e+00
-4.476297089978529e-01 -1.497433605058227e-01 1.036723113586476e+00
-4.467313814247487e-01 -5.016865595713269e-02 1.037659908534403e+00
-4.467313814247488e-01 5.016865595713278e-02 1.037659908534403e+00
-4.476297089978528e-01 1.497433605058228e-01 1.036723113586476e+00
-4.486054629051432e-01 2.496874620697929e-01 1.035854523069591e+00
-4.494514898247473e-01 3.498594499720046e-01 1.034975723298015e+00
-4.502192108629756e-01 4.502192108629755e-01 1.033980992575265e+00
-3.498594499720049e-01 -4.494514898247472e-01 1.034975723298015e+00
-3.490180905526904e-01 -3.490180905526905e-01 1.034242283433087e+00
-3.480928192393493e-01 -2.486381657092929e-01 1.033493962476462e+00
-3.471600824492539e-01 -1.486327699660939e-01 1.032934662589404e+00
-3.461598696816573e-01 -4.922615927041282e-02 1.032241681296498e+00
-3.461598696816572e-01 4.922615927041294e-02 1.032241681296497e+00
-3.471600824492539e-01 1.486327699660939e-01 1.032934662589404e+00
-3.480928192393493e-01 2.486381657092931e-01 1.033493962476462e+00
-3.490180905526904e-01 3.490180905526905e-01 1.034242283433086e+00
-3.498594499720047e-01 4.494514898247472e-01 1.034975723298015e+00
-2.496874620697928e-01 -4.486054629051431e-01 1.035854523069591e+00
-2.486381657092931e-01 -3.480928192393492e-01 1.033493962476462e+00
-2.485377615876002e-01 -2.485377615876002e-01 1.031744313536957e+00
-2.478870888150536e-01 -1.482661952381889e-01 1.031888543424835e+00
-2.466714658207901e-01 -4.856682333268555e-02 1.030206189975875e+00
-2.466714658207900e-01 4.856682333268552e-02 1.030206189975875e+00
-2.478870888150535e-01 1.482661952381890e-01 1.031888543424835e+00
-2.485377615876002e-01 2.485377615876003e-01 1.031744313536957e+00
-2.486381657092930e-01 3.480928192393491e-01 1.033493962476462e+00
-2.496874620697928e-01 4.486054629051432e-01 1.035854523069591e+00
-1.497433605058227e-01 -4.476297089978529e-01 1.036723113586476e+00
-1.486327699660938e-01 -3.471600824492538e-01 1.032934662589404e+00
-1.482661952381890e-01 -2.478870888150535e-01 1.031888543424835e+00
-1.482661952381889e-01 2.478870888150536e-01 1.031888543424835e+00
-1.486327699660938e-01 3.471600824492539e-01 1.032934662589404e+00
-1.497433605058227e-01 4.476297089978529e-01 1.036723113586476e+00
-5.016865595713274e-02 -4.467313814247488e-01 1.037659908534403e+00
-4.922615927041279e-02 -3.461598696816573e-01 1.032241681296498e+00
-4.856682333268544e-02 -2.466714658207900e-01 1.030206189975874e+00
-4.856682333268544e-02 2.466714658207899e-01 1.030206189975874e+00
-4.922615927041280e-02 3.461598696816572e-01 1.032241681296498e+00
-5.016865595713278e-02 4.467313814247487e-01 1.037659908534403e+00
5.016865595713273e-02 -4.467313814247488e-01 1.037659908534403e+00
4.922615927041296e-02 -3.461598696816572e-01 1.032241681296498e+00
4.856682333268561e-02 -2.466714658207900e-01 1.030206189975874e+00
4.856682333268554e-02 2.466714658207899e-01 1.030206189975874e+00
4.922615927041289e-02 3.461598696816574e-01 1.032241681296498e+00
5.016865595713274e-02 4.467313814247488e-01 1.037659908534403e+00
1.497433605058229e-01 -4.476297089978529e-01 1.036723113586476e+00
1.486327699660941e-01 -3.471600824492539e-01 1.032934662589404e+00
1.482661952381890e-01 -2.478870888150536e-01 1.031888543424835e+00
1.482661952381889e-01 2.478870888150535e-01 1.031888543424835e+00
1.486327699660940e-01 3.471600824492539e-01 1.032934662589404e+00
1.497433605058229e-01 4.476297089978528e-01 1.036723113586476e+00
2.496874620697930e-01 -4.486054629051432e-01 1.035854523069591e+00
2.486381657092931e-01 -3.480928192393493e-01 1.033493962476462e+00
2.485377615876004e-01 -2.485377615876002e-01 1.031744313536957e+00
2.478870888150536e-01 -1.482661952381889e-01 1.031888543424835e+00
2.466714658207900e-01 -4.856682333268550e-02 1.030206189975875e+00
2.466714658207899e-01 4.856682333268551e-02 1.030206189975875e+00
2.478870888150536e-01 1.482661952381890e-01 1.031888543424835e+00
2.485377615876003e-01 2.485377615876003e-01 1.031744313536957e+00
2.486381657092931e-01 3.480928192393492e-01 1.033493962476462e+00
2.496874620697929e-01 4.486054629051432e-01 1.035854523069591e+00
3.498594499720048e-01 -4.494514898247471e-01 1.034975723298015e+00
3.490180905526905e-01 -3.490180905526904e-01 1.034242283433087e+00
3.480928192393493e-01 -2.486381657092930e-01 1.033493962476462e+00
3.471600824492539e-01 -1.486327699660940e-01 1.032934662589404e+00
3.461598696816572e-01 -4.922615927041282e-02 1.032241681296498e+00
3.461598696816572e-01 4.922615927041293e-02 1.032241681296498e+00
3.471600824492539e-01 1.486327699660939e-01 1.032934662589404e+00
3.480928192393494e-01 2.486381657092930e-01 1.033493962476462e+00
3.490180905526905e-01 3.490180905526905e-01 1.034242283433087e+00
3.498594499720047e-01 4.494514898247473e-01 1.034975723298015e+00
4.502192108629756e-01 -4.502192108629756e-01 1.033980992575265e+00
4.494514898247473e-01 -3.498594499720047e-01 1.034975723298015e+00
4.486054629051432e-01 -2.496874620697929e-01 1.035854523069591e+00
4.476297089978529e-01 -1.497433605058227e-01 1.036723113586476e+00
4.467313814247487e-01 -5.016865595713277e-02 1.037659908534403e+00
4.467313814247488e-01 5.016865595713284e-02 1.037659908534403e+00
4.476297089978528e-01 1.497433605058229e-01 1.036723113586476e+00
4.486054629051433e-01 2.496874620697929e-01 1.035854523069591e+00
4.494514898247473e-01 3.498594499720046e-01 1.034975723298016e+00
4.502192108629756e-01 4.502192108629755e-01 1.033980992575265e+00
-4.497732458667658e-01 -4.497732458667658e-01 1.133772130046658e+00
-4.497681743773380e-01 -4.497681743773380e-01 1.232765800995826e+00
-4.498178427830782e-01 -4.498178427830782e-01 1.331729599375208e+00
-4.498747288943654e-01 -4.498747288943655e-01 1.430771211651982e+00
-4.495254364669679e-01 -3.494284448794015e-01 1.133934875289067e+00
-4.496301538422079e-01 -3.494153583836719e-01 1.232716479343528e+00
-4.497552869522092e-01 -3.495590863440527e-01 1.331647994582998e+00
-4.498499673181155e-01 -3.497095023644328e-01 1.430696532086392e+00
-4.491196355821799e-01 -2.491972749827033e-01 1.134107044971332e+00
-4.493754677661790e-01 -2.492108759296522e-01 1.232626373844102e+00
-4.495868603446671e-01 -2.493924222969392e-01 1.331528932296627e+00
-4.497609884850767e-01 -2.495886560816536e-01 1.430609509389799e+00
-4.484780204013559e-01 -1.492631063365022e-01 1.134319607592070e+00
-4.487668761747429e-01 -1.492449180967302e-01 1.232574289747625e+00
-4.489963940308748e-01 -1.493897318780416e-01 1.331418037903168e+00
-4.493331739699290e-01 -1.495688112211002e-01 1.430483594983840e+00
-4.480262903029629e-01 -4.970640288132128e-02 1.134482151930072e+00
-4.483480873344061e-01 -4.971502041491654e-02 1.232529621250656e+00
-4.485884542257940e-01 -4.977958473426342e-02 1.331340672890369e+00
-4.490439760702473e-01 -4.984530274202573e-02 1.430403152792090e+00
-4.480262903029629e-01 4.970640288132146e-02 1.134482151930072e+00
-4.483480873344063e-01 4.971502041491661e-02 1.232529621250656e+00
-4.485884542257939e-01 4.977958473426348e-02 1.331340672890369e+00
-4.490439760702473e-01 4.984530274202573e-02 1.430403152792089e+00
-4.484780204013558e-01 1.492631063365022e-01 1.134319607592069e+00
-4.487668761747430e-01 1.492449180967302e-01 1.232574289747625e+00
-4.489963940308748e-01 1.493897318780416e-01 1.331418037903168e+00
-4.493331739699290e-01 1.495688112211002e-01 1.430483594983840e+00
-4.491196355821800e-01 2.491972749827033e-01 1.134107044971332e+00
-4.493754677661790e-01 2.492108759296521e-01 1.232626373844102e+00
-4.495868603446672e-01 2.493924222969391e-01 1.331528932296627e+00
-4.497609884850767e-01 2.495886560816537e-01 1.430609509389799e+00
-4.495254364669679e-01 3.494284448794015e-01 1.133934875289067e+00
-4.496301538422079e-01 3.494153583836717e-01 1.232716479343528e+00
-4.497552869522091e-01 3.495590863440529e-01 1.331647994582998e+00
-4.498499673181155e-01 3.497095023644329e-01 1.430696532086392e+00
-4.497732458667657e-01 4.497732458667658e-01 1.133772130046659e+00
-4.497681743773380e-01 4.497681743773380e-01 1.232765800995826e+00
-4.498178427830782e-01 4.498178427830782e-01 1.331729599375208e+00
-4.498747288943654e-01 4.498747288943656e-01 1.430771211651982e+00
-3.494284448794014e-01 -4.495254364669680e-01 1.133934875289067e+00
-3.494153583836718e-01 -4.496301538422078e-01 1.232716479343528e+00
-3.495590863440527e-01 -4.497552869522092e-01 1.331647994582998e+00
-3.497095023644328e-01 -4.498499673181156e-01 1.430696532086392e+00
-3.488532118998414e-01 -3.488532118998415e-01 1.133592970612740e+00
-3.491325842273353e-01 -3.491325842273353e-01 1.232545196594647e+00
-3.494096657773514e-01 -3.494096657773514e-01 1.331574427649788e+00
-3.496450049610105e-01 -3.496450049610105e-01 1.430643533929430e+00
-3.483559312222123e-01 -2.483140756330927e-01 1.133281780747107e+00
-3.490194133258206e-01 -2.483953177987113e-01 1.232511765558757e+00
-3.494811187747451e-01 -2.486284429020354e-01 1.331614587824896e+00
-3.497896805986996e-01 -2.490472034017959e-01 1.430600572086721e+00
-3.477864803656670e-01 -1.483018479484909e-01 1.133352654912895e+00
-3.487244365286221e-01 -1.483053876133767e-01 1.232827643648977e+00
-3.493697239720273e-01 -1.484687508882884e-01 1.331750358851987e+00
-3.496843379082085e-01 -1.488809897363584e-01 1.430447618034228e+00
-3.471191687008307e-01 -4.918952942771838e-02 1.133348851989657e+00
[...]
  <PointData>
        <DataArray type="Float64" Name="acceleration" NumberOfComponents="3" format="ascii">
-1.374324868853770e-02 -1.374324868853582e-02 -5.355999339735147e-01
-8.432123824126202e-02 -1.202825959459826e-01 -6.656609966840805e-01
-9.366504478295554e-02 -1.965263555186417e-01 -7.939563019967146e-01
-3.416318018032274e-02 -1.426532185343015e-01 -9.216682862081229e-01
3.207431081520773e-03 -3.903306308180973e-02 -1.053651159249002e+00
3.207431081389767e-03 3.903306308187216e-02 -1.053651159249130e+00
-3.416318018048270e-02 1.426532185343301e-01 -9.216682862084711e-01
-9.366504478301647e-02 1.965263555186447e-01 -7.939563019971507e-01
-8.432123824136094e-02 1.202825959459211e-01 -6.656609966847449e-01
-1.374324868845874e-02 1.374324868848067e-02 -5.355999339742155e-01
-1.202825959459294e-01 -8.432123824137314e-02 -6.656609966841995e-01
-1.650476512171926e-01 -1.650476512172629e-01 -7.499506264092570e-01
-2.059949106513373e-01 -2.099937281470654e-01 -7.947847866577391e-01
-4.549794085646534e-01 -2.045137633000539e-01 -8.264014511263038e-01
-6.675917496757061e-01 -8.223590911730093e-02 -8.948483131036410e-01
-6.675917496758044e-01 8.223590911716391e-02 -8.948483131037001e-01
-4.549794085647461e-01 2.045137633003070e-01 -8.264014511266095e-01
-2.059949106512446e-01 2.099937281471067e-01 -7.947847866582574e-01
-1.650476512170894e-01 1.650476512172294e-01 -7.499506264098117e-01
-1.202825959458669e-01 8.432123824127019e-02 -6.656609966848439e-01
-1.965263555188004e-01 -9.366504478297903e-02 -7.939563019966365e-01
-2.099937281471211e-01 -2.059949106513222e-01 -7.947847866577531e-01
-6.115815576698284e-01 -6.115815576698729e-01 -7.212302007508188e-01
-1.371651638554030e+00 -6.894759383401516e-01 -7.438600531739619e-01
-1.653991785603753e+00 -1.985434430378591e-01 -7.916410185091194e-01
-1.653991785603695e+00 1.985434430376777e-01 -7.916410185091132e-01
-1.371651638554011e+00 6.894759383404216e-01 -7.438600531740951e-01
-6.115815576698509e-01 6.115815576700243e-01 -7.212302007512849e-01
-2.099937281470757e-01 2.059949106512786e-01 -7.947847866583060e-01
-1.965263555187767e-01 9.366504478281244e-02 -7.939563019972058e-01
-1.426532185343956e-01 -3.416318018033196e-02 -9.216682862077090e-01
-2.045137633002409e-01 -4.549794085645831e-01 -8.264014511261031e-01
-6.894759383402961e-01 -1.371651638553979e+00 -7.438600531738326e-01
-6.894759383403167e-01 1.371651638554098e+00 -7.438600531740964e-01
-2.045137633002005e-01 4.549794085646401e-01 -8.264014511265205e-01
-1.426532185342534e-01 3.416318018010175e-02 -9.216682862082766e-01
-3.903306308172632e-02 3.207431081418133e-03 -1.053651159248392e+00
-8.223590911724417e-02 -6.675917496757050e-01 -8.948483131032829e-01
-1.985434430378661e-01 -1.653991785603682e+00 -7.916410185088805e-01
-1.985434430376785e-01 1.653991785603864e+00 -7.916410185091498e-01
-8.223590911696524e-02 6.675917496758992e-01 -8.948483131037367e-01
-3.903306308159298e-02 -3.207431081830692e-03 -1.053651159249044e+00
3.903306308189663e-02 3.207431081397205e-03 -1.053651159248480e+00
8.223590911730820e-02 -6.675917496757762e-01 -8.948483131032702e-01
1.985434430378989e-01 -1.653991785603672e+00 -7.916410185088916e-01
1.985434430380534e-01 1.653991785603977e+00 -7.916410185092448e-01
8.223590911729546e-02 6.675917496757933e-01 -8.948483131037552e-01
3.903306308175333e-02 -3.207431081894974e-03 -1.053651159248887e+00
1.426532185342621e-01 -3.416318018034720e-02 -9.216682862079564e-01
2.045137633002551e-01 -4.549794085646158e-01 -8.264014511262849e-01
6.894759383404574e-01 -1.371651638553916e+00 -7.438600531740351e-01
6.894759383402503e-01 1.371651638554050e+00 -7.438600531741404e-01
2.045137632999695e-01 4.549794085644756e-01 -8.264014511262693e-01
1.426532185341225e-01 3.416318018007111e-02 -9.216682862077383e-01
1.965263555187430e-01 -9.366504478294574e-02 -7.939563019968903e-01
2.099937281470948e-01 -2.059949106511810e-01 -7.947847866581486e-01
6.115815576699707e-01 -6.115815576696306e-01 -7.212302007513165e-01
1.371651638554184e+00 -6.894759383402208e-01 -7.438600531743256e-01
1.653991785603917e+00 -1.985434430378898e-01 -7.916410185092482e-01
1.653991785603798e+00 1.985434430379259e-01 -7.916410185091771e-01
1.371651638553904e+00 6.894759383402707e-01 -7.438600531741337e-01
6.115815576696370e-01 6.115815576697219e-01 -7.212302007509258e-01
2.099937281469565e-01 2.059949106511680e-01 -7.947847866575879e-01
1.965263555186864e-01 9.366504478278263e-02 -7.939563019961142e-01
1.202825959460726e-01 -8.432123824137432e-02 -6.656609966848070e-01
1.650476512171645e-01 -1.650476512171757e-01 -7.499506264098321e-01
2.059949106511875e-01 -2.099937281468272e-01 -7.947847866583846e-01
4.549794085645450e-01 -2.045137633000991e-01 -8.264014511268090e-01
6.675917496757544e-01 -8.223590911732713e-02 -8.948483131038585e-01
6.675917496757300e-01 8.223590911717457e-02 -8.948483131036378e-01
4.549794085646063e-01 2.045137633001122e-01 -8.264014511262991e-01
2.059949106512662e-01 2.099937281470045e-01 -7.947847866576436e-01
1.650476512172075e-01 1.650476512171847e-01 -7.499506264089042e-01
1.202825959460012e-01 8.432123824130136e-02 -6.656609966834877e-01
1.374324868840164e-02 -1.374324868856329e-02 -5.355999339744488e-01
8.432123824125291e-02 -1.202825959460461e-01 -6.656609966847886e-01
9.366504478280331e-02 -1.965263555185074e-01 -7.939563019972689e-01
3.416318018004899e-02 -1.426532185342040e-01 -9.216682862085781e-01
-3.207431081811152e-03 -3.903306308178413e-02 -1.053651159249243e+00
-3.207431081694245e-03 3.903306308186948e-02 -1.053651159249039e+00
3.416318018025419e-02 1.426532185342569e-01 -9.216682862080510e-01
9.366504478289528e-02 1.965263555185921e-01 -7.939563019963423e-01
8.432123824126617e-02 1.202825959458909e-01 -6.656609966835627e-01
1.374324868841270e-02 1.374324868852317e-02 -5.355999339726016e-01
-4.256951883246412e-02 -4.256951883223966e-02 -1.516768368786788e+00
-2.348358348432448e-02 -2.348358348398148e-02 -1.651950594495346e+00
2.523985682233478e-03 2.523985682561661e-03 -1.282417536263990e+00
1.772079882495536e-02 1.772079882491236e-02 -8.582856877840813e-01
-1.103574009129845e-01 -1.821918646503798e-01 -1.525113492289954e+00
-9.967340163406271e-02 -1.317732601410075e-01 -1.595161821417720e+00
-6.180969126900165e-02 -6.340186966921341e-02 -1.224597926342364e+00
2.512783985006180e-03 -2.850567360837430e-03 -8.189722192689659e-01
-9.670225473453006e-02 -2.745045800565094e-01 -1.518512507985484e+00
-1.270133685190983e-01 -2.120092054572856e-01 -1.503904585590278e+00
-1.330124355030986e-01 -1.252592322702985e-01 -1.117145155236876e+00
-5.215789985696316e-02 -2.632959623433077e-02 -7.207257905426034e-01
3.000763307795282e-02 -2.158223402014293e-01 -1.515326436752567e+00
-2.460316865324464e-02 -1.813821617157714e-01 -1.414267978680479e+00
-1.010509011008617e-01 -1.098073379442648e-01 -9.967980177523871e-01
-5.305378104618230e-02 -1.923614585697466e-02 -6.058521027137685e-01
1.289389809783237e-01 -8.170286912404483e-02 -1.540720507208214e+00
7.107903562722317e-02 -7.871385311595480e-02 -1.368951596851156e+00
-5.388825846887230e-02 -5.187613981644532e-02 -9.178545276105110e-01
-4.139627396088304e-02 -1.454622842706752e-02 -5.293782683163835e-01
1.289389809782102e-01 8.170286912400025e-02 -1.540720507208231e+00
7.107903562716233e-02 7.871385311593289e-02 -1.368951596851077e+00
-5.388825846894025e-02 5.187613981649140e-02 -9.178545276105777e-01
-4.139627396090786e-02 1.454622842693127e-02 -5.293782683165147e-01
3.000763307778104e-02 2.158223402014360e-01 -1.515326436752776e+00
-2.460316865332987e-02 1.813821617156605e-01 -1.414267978680407e+00
-1.010509011009820e-01 1.098073379441040e-01 -9.967980177524243e-01
-5.305378104620788e-02 1.923614585685752e-02 -6.058521027139117e-01
-9.670225473457332e-02 2.745045800565738e-01 -1.518512507985637e+00
-1.270133685189994e-01 2.120092054574055e-01 -1.503904585590336e+00
-1.330124355030622e-01 1.252592322702142e-01 -1.117145155237036e+00
-5.215789985709365e-02 2.632959623430663e-02 -7.207257905426168e-01
-1.103574009129313e-01 1.821918646502747e-01 -1.525113492290095e+00
-9.967340163377693e-02 1.317732601409534e-01 -1.595161821417813e+00
-6.180969126876829e-02 6.340186966925113e-02 -1.224597926342505e+00
2.512783984787838e-03 2.850567361002042e-03 -8.189722192688604e-01
-4.256951883236220e-02 4.256951883231260e-02 -1.516768368786898e+00
-2.348358348416118e-02 2.348358348404286e-02 -1.651950594495351e+00
2.523985682379771e-03 -2.523985682399509e-03 -1.282417536264002e+00
1.772079882487574e-02 -1.772079882480365e-02 -8.582856877840276e-01
-1.821918646504102e-01 -1.103574009129143e-01 -1.525113492290110e+00
-1.317732601409426e-01 -9.967340163386817e-02 -1.595161821417686e+00
-6.340186966910838e-02 -6.180969126879030e-02 -1.224597926342261e+00
-2.850567360872816e-03 2.512783984978209e-03 -8.189722192688488e-01
-2.072087104485148e-01 -2.072087104483867e-01 -1.508820698273688e+00
-1.741200026598523e-01 -1.741200026597424e-01 -1.545922597011479e+00
-1.371397008189754e-01 -1.371397008189204e-01 -1.123075456648666e+00
-5.114743547525225e-02 -5.114743547520927e-02 -7.016750979456374e-01
-1.624564429163953e-01 -2.241577053489552e-01 -1.400318824648645e+00
-2.720910944205619e-02 -1.319175618765897e-01 -1.454981803693480e+00
-3.682101757013676e-03 -8.264792673345819e-02 -1.016874442577690e+00
2.816671388202751e-02 1.189426187622804e-03 -5.853894431814923e-01
-4.024425344092832e-01 -2.276828621628438e-01 -1.236119668047739e+00
-7.844304842709429e-02 -1.290491375691116e-01 -1.307182160212434e+00
7.758381383916124e-02 -5.358453529843622e-02 -8.763036261187158e-01
1.994727700032661e-01 4.332757725525418e-02 -4.792655699591292e-01
-6.618325489600486e-01 -1.012824994302265e-01 -1.161461765031670e+00
-2.303158465348532e-01 -7.669475100072708e-02 -1.218768024577501e+00
3.825146674232827e-02 -5.084017384696329e-02 -7.844237304058159e-01
2.572719637167562e-01 -1.366495575901748e-02 -4.165791707082693e-01
-6.618325489600906e-01 1.012824994300422e-01 -1.161461765031616e+00
-2.303158465348874e-01 7.669475100060014e-02 -1.218768024577438e+00
3.825146674229186e-02 5.084017384685419e-02 -7.844237304058518e-01
2.572719637167735e-01 1.366495575886749e-02 -4.165791707083292e-01
-4.024425344092694e-01 2.276828621629667e-01 -1.236119668047861e+00
-7.844304842709597e-02 1.290491375690692e-01 -1.307182160212448e+00
7.758381383910756e-02 5.358453529830545e-02 -8.763036261187356e-01
1.994727700033464e-01 -4.332757725533794e-02 -4.792655699590466e-01
-1.624564429163560e-01 2.241577053491089e-01 -1.400318824648826e+00
-2.720910944205373e-02 1.319175618768959e-01 -1.454981803693533e+00
-3.682101756987372e-03 8.264792673363183e-02 -1.016874442577906e+00
2.816671388220471e-02 -1.189426187724017e-03 -5.853894431814661e-01
-2.072087104483792e-01 2.072087104484071e-01 -1.508820698273694e+00
-1.741200026596748e-01 1.741200026598308e-01 -1.545922597011454e+00
-1.371397008187764e-01 1.371397008190709e-01 -1.123075456649028e+00
-5.114743547510459e-02 5.114743547534769e-02 -7.016750979457875e-01
-1.821918646502820e-01 1.103574009128048e-01 -1.525113492290161e+00
-1.317732601407819e-01 9.967340163364304e-02 -1.595161821417659e+00
-6.340186966898674e-02 6.180969126870046e-02 -1.224597926342399e+00
-2.850567360833218e-03 -2.512783984790927e-03 -8.189722192689650e-01
-2.745045800564731e-01 -9.670225473459886e-02 -1.518512507985465e+00
-2.120092054571084e-01 -1.270133685191993e-01 -1.503904585590103e+00
-1.252592322700958e-01 -1.330124355031730e-01 -1.117145155236922e+00
-2.632959623432704e-02 -5.215789985702476e-02 -7.207257905427421e-01
-2.241577053490148e-01 -1.624564429163041e-01 -1.400318824648720e+00
-1.319175618766451e-01 -2.720910944209785e-02 -1.454981803693427e+00
-8.264792673348116e-02 -3.682101757103978e-03 -1.016874442577682e+00
1.189426187645549e-03 2.816671388206934e-02 -5.853894431815424e-01
-6.679363590486758e-01 -6.679363590486160e-01 -9.422937453407895e-01
-3.374173925276658e-01 -3.374173925274819e-01 -1.117841539982101e+00
-1.117060419324397e-01 -1.117060419323082e-01 -8.576187323360787e-01
1.270559925015815e-01 1.270559925015459e-01 -4.988907520271664e-01
-1.795845081741304e+00 -9.238441246042837e-01 -4.598018190586272e-01
-1.427957504930054e+00 -7.033772598467311e-01 -5.966488120473122e-01
-9.921874419364763e-01 -4.055404125607688e-01 -4.415213494272659e-01
-7.073528859669717e-02 5.406898866375624e-02 -7.034692539353099e-02
-2.279478661217847e+00 -2.846160599390502e-01 -2.562919462023223e-01
-1.957918823105706e+00 -2.243088895486703e-01 -2.914674489005875e-01
-1.440956170591714e+00 -1.259195923406534e-01 -1.381086053888758e-01
-1.128305798859804e-01 1.531959906479053e-03 1.897097572745766e-01
-2.279478661217778e+00 2.846160599389352e-01 -2.562919462022377e-01
-1.957918823105652e+00 2.243088895486294e-01 -2.914674489005336e-01
-1.440956170591642e+00 1.259195923406325e-01 -1.381086053888982e-01
-1.128305798859207e-01 -1.531959906541839e-03 1.897097572745143e-01
-1.795845081741135e+00 9.238441246044367e-01 -4.598018190586430e-01
-1.427957504929853e+00 7.033772598467396e-01 -5.966488120473412e-01
-9.921874419362569e-01 4.055404125607228e-01 -4.415213494272829e-01
-7.073528859664152e-02 -5.406898866374327e-02 -7.034692539342122e-02
-6.679363590485213e-01 6.679363590487614e-01 -9.422937453409298e-01
-3.374173925274018e-01 3.374173925277658e-01 -1.117841539982119e+00
-1.117060419321624e-01 1.117060419325029e-01 -8.576187323362114e-01
1.270559925017414e-01 -1.270559925015026e-01 -4.988907520270492e-01
-2.241577053489197e-01 1.624564429163623e-01 -1.400318824648721e+00
-1.319175618765880e-01 2.720910944221182e-02 -1.454981803693409e+00
-8.264792673343130e-02 3.682101757197842e-03 -1.016874442577948e+00
1.189426187897124e-03 -2.816671388203581e-02 -5.853894431815562e-01
-2.745045800564516e-01 9.670225473437695e-02 -1.518512507985481e+00
-2.120092054571337e-01 1.270133685188569e-01 -1.503904585590093e+00
-1.252592322701196e-01 1.330124355029813e-01 -1.117145155237052e+00
-2.632959623424345e-02 5.215789985700566e-02 -7.207257905427988e-01
-2.158223402013597e-01 3.000763307778815e-02 -1.515326436752308e+00
-1.813821617156960e-01 -2.460316865346719e-02 -1.414267978680346e+00
-1.098073379443932e-01 -1.010509011010334e-01 -9.967980177524698e-01
-1.923614585700937e-02 -5.305378104620805e-02 -6.058521027139362e-01
-2.276828621629818e-01 -4.024425344092929e-01 -1.236119668047692e+00
-1.290491375691891e-01 -7.844304842733761e-02 -1.307182160212389e+00
-5.358453529851238e-02 7.758381383901229e-02 -8.763036261186206e-01
4.332757725527274e-02 1.994727700033708e-01 -4.792655699590848e-01
-9.238441246044689e-01 -1.795845081741194e+00 -4.598018190587141e-01
-7.033772598469172e-01 -1.427957504929954e+00 -5.966488120473277e-01
-4.055404125607809e-01 -9.921874419363826e-01 -4.415213494270207e-01
5.406898866386302e-02 -7.073528859667330e-02 -7.034692539340343e-02
-9.238441246043184e-01 1.795845081741327e+00 -4.598018190586309e-01
-7.033772598466651e-01 1.427957504930135e+00 -5.966488120473022e-01
-4.055404125605764e-01 9.921874419364635e-01 -4.415213494273479e-01
5.406898866383820e-02 7.073528859685028e-02 -7.034692539353479e-02
-2.276828621628666e-01 4.024425344092310e-01 -1.236119668047679e+00
-1.290491375691390e-01 7.844304842713488e-02 -1.307182160212444e+00
-5.358453529841541e-02 -7.758381383916498e-02 -8.763036261188153e-01
4.332757725532180e-02 -1.994727700033282e-01 -4.792655699590874e-01
-2.158223402013028e-01 -3.000763307806605e-02 -1.515326436752434e+00
-1.813821617157597e-01 2.460316865322066e-02 -1.414267978680392e+00
-1.098073379444086e-01 1.010509011008872e-01 -9.967980177525216e-01
-1.923614585701241e-02 5.305378104610312e-02 -6.058521027139580e-01
-8.170286912388784e-02 1.289389809780843e-01 -1.540720507207836e+00
-7.871385311593658e-02 7.107903562696524e-02 -1.368951596851286e+00
-5.187613981663811e-02 -5.388825846901522e-02 -9.178545276106932e-01
-1.454622842713660e-02 -4.139627396087234e-02 -5.293782683163507e-01
-1.012824994301057e-01 -6.618325489602400e-01 -1.161461765031556e+00
-7.669475100066428e-02 -2.303158465351640e-01 -1.218768024577499e+00
-5.084017384701818e-02 3.825146674234247e-02 -7.844237304057543e-01
-1.366495575910444e-02 2.572719637168506e-01 -4.165791707081944e-01
-2.846160599390575e-01 -2.279478661217737e+00 -2.562919462023741e-01
-2.243088895485999e-01 -1.957918823105631e+00 -2.914674489004677e-01
-1.259195923406796e-01 -1.440956170591554e+00 -1.381086053886558e-01
1.531959906251758e-03 -1.128305798858567e-01 1.897097572746259e-01
-2.846160599390654e-01 2.279478661217936e+00 -2.562919462023277e-01
-2.243088895487787e-01 1.957918823105782e+00 -2.914674489004255e-01
-1.259195923406534e-01 1.440956170591707e+00 -1.381086053888889e-01
1.531959906534715e-03 1.128305798860705e-01 1.897097572744523e-01
-1.012824994300869e-01 6.618325489602066e-01 -1.161461765031723e+00
-7.669475100084060e-02 2.303158465349020e-01 -1.218768024577522e+00
-5.084017384702975e-02 -3.825146674253167e-02 -7.844237304058397e-01
-1.366495575905381e-02 -2.572719637169351e-01 -4.165791707083014e-01
-8.170286912387421e-02 -1.289389809784312e-01 -1.540720507208148e+00
-7.871385311603689e-02 -7.107903562715490e-02 -1.368951596851332e+00
-5.187613981667377e-02 5.388825846882782e-02 -9.178545276106986e-01
-1.454622842717545e-02 4.139627396076084e-02 -5.293782683164530e-01
8.170286912410829e-02 1.289389809781453e-01 -1.540720507207891e+00
7.871385311609805e-02 7.107903562708590e-02 -1.368951596851311e+00
5.187613981672773e-02 -5.388825846894911e-02 -9.178545276107640e-01
1.454622842702499e-02 -4.139627396085352e-02 -5.293782683164492e-01
1.012824994303442e-01 -6.618325489602872e-01 -1.161461765031478e+00
7.669475100090871e-02 -2.303158465351481e-01 -1.218768024577568e+00
5.084017384706259e-02 3.825146674225899e-02 -7.844237304059076e-01
1.366495575894999e-02 2.572719637167150e-01 -4.165791707082496e-01
2.846160599391926e-01 -2.279478661217822e+00 -2.562919462022769e-01
2.243088895487852e-01 -1.957918823105666e+00 -2.914674489005257e-01
1.259195923405995e-01 -1.440956170591589e+00 -1.381086053889072e-01
-1.531959906592172e-03 -1.128305798858867e-01 1.897097572745846e-01
2.846160599391350e-01 2.279478661217976e+00 -2.562919462025551e-01
2.243088895486179e-01 1.957918823105750e+00 -2.914674489004499e-01
1.259195923405592e-01 1.440956170591653e+00 -1.381086053888380e-01
-1.531959906594826e-03 1.128305798859711e-01 1.897097572744373e-01
1.012824994301816e-01 6.618325489601926e-01 -1.161461765031968e+00
7.669475100067662e-02 2.303158465349023e-01 -1.218768024577588e+00
5.084017384688485e-02 -3.825146674255279e-02 -7.844237304058213e-01
1.366495575883108e-02 -2.572719637169698e-01 -4.165791707083721e-01
8.170286912399204e-02 -1.289389809784082e-01 -1.540720507208261e+00
7.871385311599058e-02 -7.107903562704788e-02 -1.368951596851389e+00
5.187613981661709e-02 5.388825846892763e-02 -9.178545276106851e-01
1.454622842702384e-02 4.139627396082428e-02 -5.293782683165145e-01
2.158223402014179e-01 3.000763307782379e-02 -1.515326436752307e+00
1.813821617158987e-01 -2.460316865338771e-02 -1.414267978680403e+00
1.098073379444526e-01 -1.010509011010076e-01 -9.967980177527229e-01
1.923614585695331e-02 -5.305378104622918e-02 -6.058521027141187e-01
2.276828621628885e-01 -4.024425344093955e-01 -1.236119668047668e+00
1.290491375691116e-01 -7.844304842746624e-02 -1.307182160212496e+00
5.358453529845963e-02 7.758381383884148e-02 -8.763036261188905e-01
-4.332757725528127e-02 1.994727700032934e-01 -4.792655699590882e-01
9.238441246044226e-01 -1.795845081741219e+00 -4.598018190587747e-01
7.033772598466516e-01 -1.427957504930024e+00 -5.966488120474395e-01
4.055404125606484e-01 -9.921874419363713e-01 -4.415213494272771e-01
-5.406898866372219e-02 -7.073528859667016e-02 -7.034692539335645e-02
9.238441246042952e-01 1.795845081741319e+00 -4.598018190590443e-01
7.033772598465999e-01 1.427957504930057e+00 -5.966488120473625e-01
4.055404125605117e-01 9.921874419363795e-01 -4.415213494272313e-01
-5.406898866386363e-02 7.073528859664835e-02 -7.034692539355397e-02