<?xml version="1.0" ?> 
<!-- 
# vtk DataFile Version 3.0
-->
<VTKFile type="UnstructuredGrid" version="0.1" compressor="vtkZLibDataCompressor" byte_order="LittleEndian">
  <UnstructuredGrid>
    <FieldData>
      <DataArray type="Float64" Name="TIME" NumberOfTuples="1" format="ascii">
1.875000000000001e-01 
      </DataArray>
    </FieldData>

    <Piece NumberOfPoints="252" NumberOfCells="0" >
      <Points>
        <DataArray type="Float64" NumberOfComponents="3" format="ascii">
-4.497277929285644e-01 -4.497277929285645e-01 9.843628141664104e-01
-4.498472837943364e-01 -3.493669776446666e-01 9.853577398181710e-01
-4.498837851031459e-01 -2.491958228198883e-01 9.863529090775690e-01
-3.493669776446668e-01 -4.498472837943364e-01 9.853577398181710e-01
-3.494140052569753e-01 -3.494140052569754e-01 9.845569758711060e-01
-3.493786666099068e-01 -2.490348115840818e-01 9.837561960649226e-01
-2.491958228198882e-01 -4.498837851031458e-01 9.863529090775690e-01
-2.490348115840819e-01 -3.493786666099067e-01 9.837561960649225e-01
-2.498371470141884e-01 -2.498371470141884e-01 9.812034231110838e-01
-1.492537855451066e-01 -4.497842458176852e-01 9.873411687226098e-01
-1.490316492839489e-01 -3.493425831513465e-01 9.829571208549366e-01
-1.496316043380466e-01 -2.502065985105416e-01 9.786432742982678e-01
-4.967978716447424e-02 -4.497589880032870e-01 9.883268000106052e-01
-4.962686126423199e-02 -3.492340673317029e-01 9.821570935081758e-01
-4.995705606327544e-02 -2.499909200861177e-01 9.760740180571416e-01
-3.510367715307266e-01 3.510367715307266e-01 9.845823685476409e-01
-3.479301385514889e-01 4.507484667654055e-01 9.853794201240300e-01
-3.468784615262098e-01 4.517126217454082e-01 9.853981455388874e-01
-2.527177545575185e-01 2.527177545575186e-01 9.813500631745798e-01
-2.559795402153153e-01 2.559795402153153e-01 9.815125379000121e-01
-2.494305329751491e-01 3.522090418295203e-01 9.838323246645828e-01
-2.501111577871831e-01 3.553984881024042e-01 9.839192528909237e-01
-2.476494858079272e-01 4.529734174370768e-01 9.864489043632629e-01
-2.465052475308531e-01 4.558484223393295e-01 9.865365204270625e-01
-4.497842458176852e-01 -1.492537855451067e-01 9.873411687226097e-01
-4.497589880032871e-01 -4.967978716447419e-02 9.883268000106052e-01
-1.521590180065023e-01 2.529232244112444e-01 9.788252070692254e-01
-1.550540805243298e-01 2.575306714906554e-01 9.790943079011342e-01
-3.493425831513466e-01 -1.490316492839490e-01 9.829571208549367e-01
-3.492340673317029e-01 -4.962686126423205e-02 9.821570935081757e-01
-1.493668280124673e-01 3.543356038165812e-01 9.831775411641135e-01
-1.498410903525838e-01 3.595804781460031e-01 9.834091897671086e-01
-2.502065985105416e-01 -1.496316043380466e-01 9.786432742982678e-01
-2.499909200861178e-01 -4.995705606327559e-02 9.760740180571414e-01
-1.476740418407394e-01 4.549214717853358e-01 9.875824137135842e-01
-1.463914223032474e-01 4.595711516266878e-01 9.878015406030398e-01
-5.348263822023666e-02 2.538198595631041e-01 9.763969531155907e-01
-5.607173206128543e-02 2.597884029947968e-01 9.768211769524209e-01
-5.020430605136639e-02 3.563567531358574e-01 9.825981718300995e-01
-5.050568200644656e-02 3.635149155819509e-01 9.830384485659860e-01
-4.807446063257675e-02 4.570092036339691e-01 9.887897324170937e-01
-4.671193856707228e-02 4.634099830556613e-01 9.892011991461207e-01
2.498371470141885e-01 2.498371470141885e-01 9.812034231110837e-01
2.490348115840819e-01 3.493786666099067e-01 9.837561960649225e-01
2.491958228198884e-01 4.498837851031459e-01 9.863529090775691e-01
3.493786666099069e-01 2.490348115840818e-01 9.837561960649224e-01
2.529232244112444e-01 -1.521590180065024e-01 9.788252070692254e-01
2.575306714906554e-01 -1.550540805243298e-01 9.790943079011341e-01
2.538198595631040e-01 -5.348263822023673e-02 9.763969531155908e-01
2.597884029947968e-01 -5.607173206128536e-02 9.768211769524211e-01
3.494140052569754e-01 3.494140052569754e-01 9.845569758711060e-01
3.493669776446666e-01 4.498472837943364e-01 9.853577398181708e-01
4.498837851031459e-01 2.491958228198883e-01 9.863529090775690e-01
4.498472837943363e-01 3.493669776446665e-01 9.853577398181709e-01
3.543356038165810e-01 -1.493668280124673e-01 9.831775411641134e-01
3.595804781460032e-01 -1.498410903525836e-01 9.834091897671083e-01
3.563567531358573e-01 -5.020430605136642e-02 9.825981718300996e-01
3.635149155819509e-01 -5.050568200644638e-02 9.830384485659861e-01
4.497277929285644e-01 4.497277929285642e-01 9.843628141664102e-01
-4.483309447869666e-01 -4.483309447869665e-01 9.843901352725772e-01
-4.474109559865117e-01 -4.474109559865117e-01 9.844077496816039e-01
-4.507484667654055e-01 -3.479301385514888e-01 9.853794201240300e-01
-4.517126217454079e-01 -3.468784615262099e-01 9.853981455388874e-01
-4.529734174370766e-01 -2.476494858079271e-01 9.864489043632629e-01
-4.558484223393294e-01 -2.465052475308532e-01 9.865365204270624e-01
-3.479301385514887e-01 -4.507484667654056e-01 9.853794201240300e-01
-3.468784615262098e-01 -4.517126217454079e-01 9.853981455388872e-01
-3.500245104969354e-01 -3.500245104969356e-01 9.845666390223510e-01
-3.510367715307267e-01 -3.510367715307267e-01 9.845823685476409e-01
-3.522090418295203e-01 -2.494305329751492e-01 9.838323246645828e-01
-3.553984881024040e-01 -2.501111577871833e-01 9.839192528909236e-01
-2.476494858079271e-01 -4.529734174370768e-01 9.864489043632630e-01
-2.465052475308530e-01 -4.558484223393293e-01 9.865365204270626e-01
-2.494305329751490e-01 -3.522090418295204e-01 9.838323246645829e-01
-2.501111577871831e-01 -3.553984881024040e-01 9.839192528909237e-01
-2.527177545575185e-01 -2.527177545575186e-01 9.813500631745797e-01
-2.559795402153153e-01 -2.559795402153154e-01 9.815125379000124e-01
-1.476740418407394e-01 -4.549214717853360e-01 9.875824137135846e-01
-1.463914223032474e-01 -4.595711516266878e-01 9.878015406030402e-01
-1.493668280124674e-01 -3.543356038165812e-01 9.831775411641136e-01
-1.498410903525836e-01 -3.595804781460033e-01 9.834091897671086e-01
-1.521590180065024e-01 -2.529232244112444e-01 9.788252070692255e-01
-1.550540805243299e-01 -2.575306714906556e-01 9.790943079011343e-01
-4.807446063257667e-02 -4.570092036339690e-01 9.887897324170938e-01
-4.671193856707212e-02 -4.634099830556614e-01 9.892011991461208e-01
-5.020430605136642e-02 -3.563567531358572e-01 9.825981718300997e-01
-5.050568200644651e-02 -3.635149155819509e-01 9.830384485659860e-01
-5.348263822023674e-02 -2.538198595631042e-01 9.763969531155908e-01
-5.607173206128555e-02 -2.597884029947969e-01 9.768211769524211e-01
3.543356038165811e-01 1.493668280124675e-01 9.831775411641135e-01
3.595804781460031e-01 1.498410903525838e-01 9.834091897671086e-01
1.463914223032474e-01 4.595711516266877e-01 9.878015406030400e-01
4.549214717853357e-01 -1.476740418407394e-01 9.875824137135842e-01
4.595711516266877e-01 -1.463914223032473e-01 9.878015406030399e-01
4.570092036339690e-01 -4.807446063257662e-02 9.887897324170937e-01
4.634099830556613e-01 -4.671193856707209e-02 9.892011991461208e-01
4.967978716447419e-02 -4.497589880032871e-01 9.883268000106052e-01
4.962686126423213e-02 -3.492340673317028e-01 9.821570935081758e-01
4.995705606327560e-02 -2.499909200861177e-01 9.760740180571417e-01
1.492537855451069e-01 -4.497842458176852e-01 9.873411687226097e-01
1.490316492839491e-01 -3.493425831513466e-01 9.829571208549367e-01
1.496316043380467e-01 -2.502065985105416e-01 9.786432742982677e-01
2.491958228198884e-01 -4.498837851031458e-01 9.863529090775691e-01
2.490348115840819e-01 -3.493786666099068e-01 9.837561960649224e-01
-4.549214717853360e-01 -1.476740418407394e-01 9.875824137135842e-01
-4.595711516266877e-01 -1.463914223032474e-01 9.878015406030400e-01
-4.570092036339690e-01 -4.807446063257667e-02 9.887897324170936e-01
-4.634099830556613e-01 -4.671193856707212e-02 9.892011991461208e-01
2.498371470141886e-01 -2.498371470141885e-01 9.812034231110838e-01
3.493669776446667e-01 -4.498472837943363e-01 9.853577398181709e-01
3.494140052569754e-01 -3.494140052569753e-01 9.845569758711060e-01
3.493786666099067e-01 -2.490348115840818e-01 9.837561960649223e-01
-3.543356038165812e-01 -1.493668280124673e-01 9.831775411641135e-01
-3.595804781460034e-01 -1.498410903525838e-01 9.834091897671086e-01
-3.563567531358572e-01 -5.020430605136642e-02 9.825981718300996e-01
-3.635149155819509e-01 -5.050568200644640e-02 9.830384485659860e-01
4.497277929285642e-01 -4.497277929285643e-01 9.843628141664100e-01
4.498472837943364e-01 -3.493669776446667e-01 9.853577398181710e-01
4.498837851031459e-01 -2.491958228198882e-01 9.863529090775691e-01
2.527177545575186e-01 2.527177545575187e-01 9.813500631745797e-01
-2.529232244112444e-01 -1.521590180065024e-01 9.788252070692254e-01
-2.575306714906555e-01 -1.550540805243301e-01 9.790943079011343e-01
-2.538198595631042e-01 -5.348263822023684e-02 9.763969531155908e-01
-2.597884029947969e-01 -5.607173206128556e-02 9.768211769524210e-01
2.559795402153152e-01 2.559795402153152e-01 9.815125379000122e-01
2.494305329751490e-01 3.522090418295203e-01 9.838323246645828e-01
4.570092036339690e-01 4.807446063257672e-02 9.887897324170936e-01
4.634099830556614e-01 4.671193856707212e-02 9.892011991461208e-01
4.549214717853360e-01 1.476740418407393e-01 9.875824137135841e-01
4.595711516266877e-01 1.463914223032474e-01 9.878015406030398e-01
2.501111577871833e-01 3.553984881024040e-01 9.839192528909237e-01
2.476494858079271e-01 4.529734174370768e-01 9.864489043632629e-01
2.465052475308530e-01 4.558484223393293e-01 9.865365204270624e-01
3.522090418295203e-01 2.494305329751491e-01 9.838323246645828e-01
3.553984881024040e-01 2.501111577871833e-01 9.839192528909237e-01
3.500245104969355e-01 3.500245104969357e-01 9.845666390223509e-01
3.510367715307267e-01 3.510367715307266e-01 9.845823685476408e-01
3.479301385514887e-01 4.507484667654056e-01 9.853794201240300e-01
3.468784615262098e-01 4.517126217454080e-01 9.853981455388872e-01
2.502065985105416e-01 -1.496316043380466e-01 9.786432742982676e-01
2.499909200861177e-01 -4.995705606327551e-02 9.760740180571414e-01
4.529734174370768e-01 2.476494858079271e-01 9.864489043632630e-01
4.558484223393294e-01 2.465052475308530e-01 9.865365204270624e-01
3.493425831513466e-01 -1.490316492839490e-01 9.829571208549366e-01
3.492340673317028e-01 -4.962686126423203e-02 9.821570935081758e-01
4.507484667654056e-01 3.479301385514887e-01 9.853794201240300e-01
4.517126217454080e-01 3.468784615262098e-01 9.853981455388872e-01
4.497842458176852e-01 -1.492537855451067e-01 9.873411687226096e-01
4.497589880032869e-01 -4.967978716447424e-02 9.883268000106051e-01
4.483309447869666e-01 4.483309447869664e-01 9.843901352725771e-01
4.474109559865114e-01 4.474109559865115e-01 9.844077496816036e-01
5.348263822023683e-02 2.538198595631042e-01 9.763969531155909e-01
5.607173206128552e-02 2.597884029947968e-01 9.768211769524209e-01
5.020430605136655e-02 3.563567531358574e-01 9.825981718300993e-01
-4.497589880032871e-01 4.967978716447427e-02 9.883268000106051e-01
-4.497842458176849e-01 1.492537855451068e-01 9.873411687226096e-01
-3.492340673317028e-01 4.962686126423212e-02 9.821570935081758e-01
-3.493425831513466e-01 1.490316492839490e-01 9.829571208549367e-01
-2.499909200861177e-01 4.995705606327554e-02 9.760740180571416e-01
-2.502065985105416e-01 1.496316043380467e-01 9.786432742982678e-01
5.050568200644656e-02 3.635149155819508e-01 9.830384485659859e-01
2.499909200861176e-01 4.995705606327551e-02 9.760740180571414e-01
2.502065985105416e-01 1.496316043380466e-01 9.786432742982676e-01
4.807446063257681e-02 4.570092036339690e-01 9.887897324170936e-01
4.671193856707223e-02 4.634099830556614e-01 9.892011991461209e-01
3.492340673317029e-01 4.962686126423213e-02 9.821570935081759e-01
3.493425831513465e-01 1.490316492839490e-01 9.829571208549367e-01
4.807446063257681e-02 -4.570092036339690e-01 9.887897324170938e-01
4.671193856707207e-02 -4.634099830556613e-01 9.892011991461211e-01
5.020430605136653e-02 -3.563567531358571e-01 9.825981718300996e-01
5.050568200644639e-02 -3.635149155819508e-01 9.830384485659858e-01
5.348263822023679e-02 -2.538198595631042e-01 9.763969531155908e-01
5.607173206128540e-02 -2.597884029947968e-01 9.768211769524210e-01
1.476740418407393e-01 -4.549214717853359e-01 9.875824137135842e-01
1.463914223032473e-01 -4.595711516266878e-01 9.878015406030400e-01
-4.498837851031459e-01 2.491958228198883e-01 9.863529090775691e-01
-4.498472837943365e-01 3.493669776446666e-01 9.853577398181711e-01
-4.497277929285644e-01 4.497277929285642e-01 9.843628141664102e-01
-3.493786666099067e-01 2.490348115840819e-01 9.837561960649224e-01
-3.494140052569754e-01 3.494140052569754e-01 9.845569758711061e-01
-3.493669776446666e-01 4.498472837943363e-01 9.853577398181709e-01
-2.498371470141885e-01 2.498371470141885e-01 9.812034231110838e-01
-2.490348115840818e-01 3.493786666099066e-01 9.837561960649224e-01
-2.491958228198882e-01 4.498837851031459e-01 9.863529090775691e-01
-1.496316043380466e-01 2.502065985105416e-01 9.786432742982677e-01
-1.490316492839489e-01 3.493425831513466e-01 9.829571208549366e-01
-1.492537855451067e-01 4.497842458176852e-01 9.873411687226097e-01
-4.995705606327544e-02 2.499909200861176e-01 9.760740180571416e-01
-4.962686126423200e-02 3.492340673317029e-01 9.821570935081757e-01
-4.967978716447426e-02 4.497589880032869e-01 9.883268000106049e-01
1.493668280124674e-01 -3.543356038165812e-01 9.831775411641136e-01
1.498410903525835e-01 -3.595804781460032e-01 9.834091897671084e-01
1.521590180065025e-01 -2.529232244112444e-01 9.788252070692255e-01
1.550540805243298e-01 -2.575306714906555e-01 9.790943079011343e-01
2.476494858079271e-01 -4.529734174370768e-01 9.864489043632630e-01
2.465052475308529e-01 -4.558484223393292e-01 9.865365204270624e-01
2.494305329751491e-01 -3.522090418295203e-01 9.838323246645827e-01
2.501111577871832e-01 -3.553984881024041e-01 9.839192528909236e-01
2.527177545575186e-01 -2.527177545575186e-01 9.813500631745798e-01
2.559795402153153e-01 -2.559795402153153e-01 9.815125379000122e-01
3.479301385514887e-01 -4.507484667654057e-01 9.853794201240299e-01
3.468784615262098e-01 -4.517126217454080e-01 9.853981455388873e-01
3.500245104969356e-01 -3.500245104969356e-01 9.845666390223508e-01
3.510367715307265e-01 -3.510367715307265e-01 9.845823685476409e-01
3.522090418295203e-01 -2.494305329751489e-01 9.838323246645829e-01
3.553984881024042e-01 -2.501111577871832e-01 9.839192528909237e-01
4.483309447869664e-01 -4.483309447869665e-01 9.843901352725770e-01
4.474109559865115e-01 -4.474109559865116e-01 9.844077496816038e-01
-4.570092036339690e-01 4.807446063257687e-02 9.887897324170937e-01
-4.634099830556614e-01 4.671193856707212e-02 9.892011991461210e-01
-4.549214717853359e-01 1.476740418407395e-01 9.875824137135840e-01
-4.595711516266878e-01 1.463914223032474e-01 9.878015406030400e-01
4.507484667654055e-01 -3.479301385514887e-01 9.853794201240299e-01
4.517126217454079e-01 -3.468784615262099e-01 9.853981455388874e-01
4.529734174370769e-01 -2.476494858079271e-01 9.864489043632630e-01
4.558484223393295e-01 -2.465052475308530e-01 9.865365204270625e-01
-3.563567531358572e-01 5.020430605136657e-02 9.825981718300993e-01
-3.635149155819509e-01 5.050568200644653e-02 9.830384485659860e-01
-3.543356038165812e-01 1.493668280124673e-01 9.831775411641136e-01
-3.595804781460034e-01 1.498410903525838e-01 9.834091897671086e-01
1.521590180065023e-01 2.529232244112444e-01 9.788252070692254e-01
2.538198595631040e-01 5.348263822023679e-02 9.763969531155908e-01
4.497589880032871e-01 4.967978716447433e-02 9.883268000106051e-01
4.497842458176850e-01 1.492537855451069e-01 9.873411687226095e-01
-2.538198595631042e-01 5.348263822023687e-02 9.763969531155907e-01
-2.597884029947969e-01 5.607173206128559e-02 9.768211769524210e-01
-2.529232244112443e-01 1.521590180065025e-01 9.788252070692255e-01
-2.575306714906554e-01 1.550540805243301e-01 9.790943079011343e-01
2.597884029947967e-01 5.607173206128553e-02 9.768211769524209e-01
2.529232244112443e-01 1.521590180065024e-01 9.788252070692254e-01
2.575306714906553e-01 1.550540805243300e-01 9.790943079011341e-01
1.550540805243300e-01 2.575306714906553e-01 9.790943079011343e-01
1.493668280124673e-01 3.543356038165810e-01 9.831775411641134e-01
1.498410903525838e-01 3.595804781460031e-01 9.834091897671084e-01
1.476740418407394e-01 4.549214717853358e-01 9.875824137135842e-01
3.563567531358574e-01 5.020430605136660e-02 9.825981718300995e-01
3.635149155819509e-01 5.050568200644650e-02 9.830384485659859e-01
4.995705606327555e-02 2.499909200861176e-01 9.760740180571414e-01
4.962686126423207e-02 3.492340673317029e-01 9.821570935081756e-01
4.967978716447424e-02 4.497589880032871e-01 9.883268000106051e-01
1.496316043380466e-01 2.502065985105415e-01 9.786432742982676e-01
1.490316492839490e-01 3.493425831513466e-01 9.829571208549366e-01
1.492537855451069e-01 4.497842458176851e-01 9.873411687226096e-01
-4.529734174370769e-01 2.476494858079272e-01 9.864489043632632e-01
-4.558484223393295e-01 2.465052475308531e-01 9.865365204270626e-01
-4.507484667654055e-01 3.479301385514889e-01 9.853794201240300e-01
-4.517126217454079e-01 3.468784615262098e-01 9.853981455388872e-01
-4.483309447869665e-01 4.483309447869666e-01 9.843901352725772e-01
-4.474109559865116e-01 4.474109559865116e-01 9.844077496816039e-01
-3.522090418295203e-01 2.494305329751492e-01 9.838323246645827e-01
-3.553984881024042e-01 2.501111577871833e-01 9.839192528909237e-01
-3.500245104969356e-01 3.500245104969356e-01 9.845666390223509e-01
        </DataArray>
      </Points>

      <Cells>
        <DataArray type="Int32" Name="connectivity" format="ascii">

        </DataArray>
        <DataArray type="Int32" Name="offsets" format="ascii">

        </DataArray>
        <DataArray type="UInt8" Name="types" format="ascii">

        </DataArray>
      </Cells>

  <PointData>
        <DataArray type="Float64" Name="contact force" NumberOfComponents="3" format="ascii">
2.028308596866152e-05 2.028308596866978e-05 -1.416744726545737e-03
4.541634962675932e-05 4.534094356664251e-05 -1.555692487573785e-03
1.083874563608895e-04 8.550299547407211e-05 -1.888758057676955e-03
4.534094356662155e-05 4.541634962677614e-05 -1.555692487573610e-03
1.172270509185931e-04 1.172270509186058e-04 -1.477785677298341e-03
1.418697991104917e-04 1.510104147519604e-04 -1.251371711367823e-03
8.550299547404363e-05 1.083874563609031e-04 -1.888758057677257e-03
1.510104147519364e-04 1.418697991105179e-04 -1.251371711367463e-03
1.666164041841098e-04 1.666164041841382e-04 -6.970076146423678e-04
9.449974669364149e-05 1.992013247047829e-04 -2.246104701746107e-03
1.789588112876795e-04 1.764447168721673e-04 -4.289080649106562e-04
1.529199848860111e-04 4.641528311834603e-04 -2.013383279958088e-03
5.056206259706044e-05 2.638070663933769e-04 -2.510140524247792e-03
9.768034855038051e-05 2.717323481586611e-04 1.399408465335084e-04
3.226399598118260e-05 6.797777715338173e-04 -1.191950342783781e-03
5.220866152480766e-14 -5.220866152484433e-14 -1.423356540105039e-11
3.701163113047129e-06 -1.212513920251145e-06 -1.479404818053638e-04
6.510411535408087e-13 1.253783726257516e-13 -4.180908090451617e-11
-9.155404097112048e-08 9.155404096985504e-08 -1.120616085095489e-04
-0.000000000000000e+00 -0.000000000000000e+00 -0.000000000000000e+00
5.198706444814435e-06 -1.259923952848030e-07 -1.321077181994715e-04
2.396074453912249e-14 5.984469307695971e-14 -2.480447081358162e-12
5.725644816565758e-06 -2.036949710680842e-06 -1.812943214132952e-04
3.734006853298869e-12 2.075205226472065e-12 -1.944327181520165e-10
1.992013247047990e-04 9.449974669365061e-05 -2.246104701745440e-03
2.638070663934223e-04 5.056206259704075e-05 -2.510140524246796e-03
-2.996677207628882e-06 -8.792223750104033e-06 -2.705117718273381e-04
-0.000000000000000e+00 -0.000000000000000e+00 -0.000000000000000e+00
1.764447168721693e-04 1.789588112877060e-04 -4.289080649101421e-04
2.717323481586642e-04 9.768034855037354e-05 1.399408465340309e-04
6.328655037017229e-06 2.786603311049853e-06 -5.098125571265040e-05
1.793748718319602e-16 4.765657542823545e-16 -5.728313335795429e-15
4.641528311834503e-04 1.529199848860363e-04 -2.013383279957813e-03
6.797777715338254e-04 3.226399598118566e-05 -1.191950342783136e-03
6.786118274463845e-06 -4.376395108371214e-06 -2.242944926369049e-04
1.285521904692550e-11 8.147248615309891e-12 -6.474064556232487e-10
-7.766850735265779e-06 -9.599520317358908e-06 -2.924443522162529e-04
-0.000000000000000e+00 -0.000000000000000e+00 -0.000000000000000e+00
3.362719623996780e-06 2.020204633212588e-06 -1.163488814808669e-06
-0.000000000000000e+00 -0.000000000000000e+00 -0.000000000000000e+00
4.697978375380929e-06 -5.146273291033364e-06 -2.557392640596262e-04
2.583851771227636e-11 3.492908200149226e-11 -1.728681060830215e-09
-1.666164041841039e-04 -1.666164041841065e-04 -6.970076146420373e-04
-1.510104147519394e-04 -1.418697991105051e-04 -1.251371711367330e-03
-8.550299547406000e-05 -1.083874563608886e-04 -1.888758057677616e-03
-1.418697991105041e-04 -1.510104147519349e-04 -1.251371711367431e-03
-8.792223750103587e-06 -2.996677207629107e-06 -2.705117718273285e-04
-0.000000000000000e+00 -0.000000000000000e+00 -0.000000000000000e+00
-9.599520317359554e-06 -7.766850735265896e-06 -2.924443522162404e-04
-0.000000000000000e+00 -0.000000000000000e+00 -0.000000000000000e+00
-1.172270509185992e-04 -1.172270509186053e-04 -1.477785677298554e-03
-4.534094356663887e-05 -4.541634962678794e-05 -1.555692487574027e-03
-1.083874563609130e-04 -8.550299547405587e-05 -1.888758057677392e-03
-4.541634962680883e-05 -4.534094356663547e-05 -1.555692487573793e-03
2.786603311049621e-06 6.328655037016694e-06 -5.098125571264173e-05
4.765657542793518e-16 1.793748718308394e-16 -5.728313335759148e-15
2.020204633212524e-06 3.362719623996312e-06 -1.163488814796075e-06
-0.000000000000000e+00 -0.000000000000000e+00 -0.000000000000000e+00
-2.028308596869029e-05 -2.028308596868795e-05 -1.416744726546441e-03
2.394194404451192e-06 2.394194404451608e-06 -1.428919544015792e-04
7.224012007314025e-14 7.224012007314820e-14 -5.761612279286053e-12
1.212513920249671e-06 3.701163113048868e-06 -1.479404818053989e-04
-1.253783726259812e-13 6.510411535410928e-13 -4.180908090452716e-11
2.036949710679703e-06 5.725644816567242e-06 -1.812943214133258e-04
-2.075205226472989e-12 3.734006853298462e-12 -1.944327181520078e-10
3.701163113048200e-06 1.212513920249819e-06 -1.479404818054300e-04
6.510411535408374e-13 -1.253783726259069e-13 -4.180908090451631e-11
3.974589801850063e-06 3.974589801850788e-06 -1.494924077960363e-04
5.220866152476902e-14 5.220866152480406e-14 -1.423356540104822e-11
1.259923952835139e-07 5.198706444815778e-06 -1.321077181994993e-04
-5.984469307699403e-14 2.396074453912583e-14 -2.480447081359355e-12
5.725644816566826e-06 2.036949710679552e-06 -1.812943214133590e-04
3.734006853300458e-12 -2.075205226473667e-12 -1.944327181521068e-10
5.198706444814750e-06 1.259923952839457e-07 -1.321077181995104e-04
2.396074453912077e-14 -5.984469307698382e-14 -2.480447081359063e-12
-9.155404097103578e-08 -9.155404097005698e-08 -1.120616085095698e-04
-0.000000000000000e+00 -0.000000000000000e+00 -0.000000000000000e+00
6.786118274464176e-06 4.376395108368832e-06 -2.242944926369737e-04
1.285521904693179e-11 -8.147248615317985e-12 -6.474064556236256e-10
6.328655037016390e-06 -2.786603311051451e-06 -5.098125571269868e-05
1.793748718319291e-16 -4.765657542824930e-16 -5.728313335798903e-15
-2.996677207630007e-06 8.792223750102208e-06 -2.705117718273794e-04
-0.000000000000000e+00 -0.000000000000000e+00 -0.000000000000000e+00
4.697978375381702e-06 5.146273291028902e-06 -2.557392640596970e-04
2.583851771228030e-11 -3.492908200150629e-11 -1.728681060830470e-09
3.362719623996177e-06 -2.020204633215915e-06 -1.163488814872179e-06
-0.000000000000000e+00 -0.000000000000000e+00 -0.000000000000000e+00
-7.766850735266465e-06 9.599520317357485e-06 -2.924443522162828e-04
-0.000000000000000e+00 -0.000000000000000e+00 -0.000000000000000e+00
2.786603311051908e-06 -6.328655037016512e-06 -5.098125571268307e-05
4.765657542807194e-16 -1.793748718312801e-16 -5.728313335776774e-15
-1.285521904693055e-11 8.147248615315957e-12 -6.474064556235477e-10
-4.376395108371325e-06 6.786118274463932e-06 -2.242944926369018e-04
8.147248615312327e-12 1.285521904692960e-11 -6.474064556234211e-10
-5.146273291032357e-06 4.697978375381065e-06 -2.557392640596297e-04
3.492908200150411e-11 2.583851771228167e-11 -1.728681060830470e-09
-5.056206259701502e-05 2.638070663934096e-04 -2.510140524247322e-03
-9.768034855033338e-05 2.717323481586520e-04 1.399408465333902e-04
-3.226399598115304e-05 6.797777715338123e-04 -1.191950342783725e-03
-9.449974669360708e-05 1.992013247048120e-04 -2.246104701745417e-03
-1.789588112876680e-04 1.764447168721722e-04 -4.289080649102593e-04
-1.529199848860076e-04 4.641528311834587e-04 -2.013383279957625e-03
-8.550299547405387e-05 1.083874563609077e-04 -1.888758057677124e-03
-1.510104147519350e-04 1.418697991105196e-04 -1.251371711366941e-03
4.376395108370491e-06 6.786118274464520e-06 -2.242944926369266e-04
-8.147248615314057e-12 1.285521904693148e-11 -6.474064556235026e-10
5.146273291031100e-06 4.697978375380969e-06 -2.557392640596565e-04
-3.492908200150110e-11 2.583851771227951e-11 -1.728681060830376e-09
-1.666164041841164e-04 1.666164041841307e-04 -6.970076146416672e-04
-4.534094356663526e-05 4.541634962680637e-05 -1.555692487572688e-03
-1.172270509186055e-04 1.172270509186103e-04 -1.477785677297861e-03
-1.418697991105384e-04 1.510104147519510e-04 -1.251371711366377e-03
-2.786603311050643e-06 6.328655037017459e-06 -5.098125571266382e-05
-4.765657542824850e-16 1.793748718319556e-16 -5.728313335798171e-15
-2.020204633213636e-06 3.362719623996321e-06 -1.163488814816912e-06
-0.000000000000000e+00 -0.000000000000000e+00 -0.000000000000000e+00
-2.028308596869274e-05 2.028308596867686e-05 -1.416744726544175e-03
-4.541634962681869e-05 4.534094356663761e-05 -1.555692487573098e-03
-1.083874563609339e-04 8.550299547405756e-05 -1.888758057676635e-03
9.155404097146092e-08 9.155404097124912e-08 -1.120616085095650e-04
8.792223750101395e-06 -2.996677207629503e-06 -2.705117718273746e-04
-0.000000000000000e+00 -0.000000000000000e+00 -0.000000000000000e+00
9.599520317358359e-06 -7.766850735266084e-06 -2.924443522162543e-04
-0.000000000000000e+00 -0.000000000000000e+00 -0.000000000000000e+00
-0.000000000000000e+00 -0.000000000000000e+00 -0.000000000000000e+00
-5.198706444814496e-06 -1.259923952832882e-07 -1.321077181995101e-04
-5.146273291032347e-06 -4.697978375380848e-06 -2.557392640596294e-04
3.492908200150069e-11 -2.583851771227828e-11 -1.728681060830343e-09
-4.376395108370400e-06 -6.786118274464264e-06 -2.242944926369287e-04
8.147248615315380e-12 -1.285521904692933e-11 -6.474064556234418e-10
-2.396074453913035e-14 5.984469307701039e-14 -2.480447081360213e-12
-5.725644816566434e-06 -2.036949710678794e-06 -1.812943214133526e-04
-3.734006853298883e-12 2.075205226472751e-12 -1.944327181520316e-10
-1.259923952831046e-07 -5.198706444814521e-06 -1.321077181995102e-04
5.984469307701922e-14 -2.396074453912993e-14 -2.480447081360570e-12
-3.974589801849909e-06 -3.974589801850174e-06 -1.494924077960593e-04
-5.220866152483871e-14 -5.220866152483995e-14 -1.423356540105678e-11
-3.701163113049430e-06 -1.212513920249985e-06 -1.479404818054505e-04
-6.510411535405741e-13 1.253783726258074e-13 -4.180908090449669e-11
-4.641528311834860e-04 1.529199848860334e-04 -2.013383279956762e-03
-6.797777715338409e-04 3.226399598117447e-05 -1.191950342782893e-03
-2.036949710680023e-06 -5.725644816566626e-06 -1.812943214133373e-04
2.075205226473006e-12 -3.734006853298580e-12 -1.944327181520230e-10
-1.764447168722075e-04 1.789588112876869e-04 -4.289080649093268e-04
-2.717323481586952e-04 9.768034855035900e-05 1.399408465346341e-04
-1.212513920250397e-06 -3.701163113049267e-06 -1.479404818054457e-04
1.253783726258068e-13 -6.510411535406327e-13 -4.180908090450068e-11
-1.992013247048463e-04 9.449974669363466e-05 -2.246104701744718e-03
-2.638070663934799e-04 5.056206259703394e-05 -2.510140524246124e-03
-2.394194404452714e-06 -2.394194404452542e-06 -1.428919544016476e-04
-7.224012007318942e-14 -7.224012007318657e-14 -5.761612279288555e-12
7.766850735265745e-06 -9.599520317359157e-06 -2.924443522162446e-04
-0.000000000000000e+00 -0.000000000000000e+00 -0.000000000000000e+00
-3.362719623995761e-06 2.020204633211932e-06 -1.163488814796051e-06
2.638070663934438e-04 -5.056206259704799e-05 -2.510140524246590e-03
1.992013247048212e-04 -9.449974669364258e-05 -2.246104701745026e-03
2.717323481586576e-04 -9.768034855037412e-05 1.399408465338369e-04
1.764447168721733e-04 -1.789588112877073e-04 -4.289080649099211e-04
6.797777715338070e-04 -3.226399598118151e-05 -1.191950342783364e-03
4.641528311834395e-04 -1.529199848860315e-04 -2.013383279957981e-03
-0.000000000000000e+00 -0.000000000000000e+00 -0.000000000000000e+00
-6.797777715338510e-04 -3.226399598120516e-05 -1.191950342782773e-03
-4.641528311834782e-04 -1.529199848860457e-04 -2.013383279956905e-03
-4.697978375379493e-06 -5.146273291033612e-06 -2.557392640596255e-04
-2.583851771227810e-11 3.492908200150624e-11 -1.728681060830643e-09
-2.717323481586462e-04 -9.768034855037671e-05 1.399408465338959e-04
-1.764447168721568e-04 -1.789588112876833e-04 -4.289080649102707e-04
-4.697978375379679e-06 5.146273291030404e-06 -2.557392640596755e-04
-2.583851771228199e-11 -3.492908200151093e-11 -1.728681060830856e-09
-3.362719623994978e-06 -2.020204633214458e-06 -1.163488814844555e-06
-0.000000000000000e+00 -0.000000000000000e+00 -0.000000000000000e+00
7.766850735267079e-06 9.599520317357065e-06 -2.924443522162846e-04
-0.000000000000000e+00 -0.000000000000000e+00 -0.000000000000000e+00
-6.786118274462993e-06 4.376395108370532e-06 -2.242944926369345e-04
-1.285521904692982e-11 -8.147248615313679e-12 -6.474064556234971e-10
1.083874563609041e-04 -8.550299547405666e-05 -1.888758057676688e-03
4.541634962678623e-05 -4.534094356662363e-05 -1.555692487572919e-03
2.028308596866812e-05 -2.028308596868398e-05 -1.416744726544739e-03
1.418697991105092e-04 -1.510104147519520e-04 -1.251371711366800e-03