<?xml version="1.0" ?> 
<!-- 
# vtk DataFile Version 3.0
-->
<VTKFile type="UnstructuredGrid" version="0.1" compressor="vtkZLibDataCompressor" byte_order="LittleEndian">
  <UnstructuredGrid>
    <FieldData>
      <DataArray type="Float64" Name="TIME" NumberOfTuples="1" format="ascii">
1.250000000000001e-01 
      </DataArray>
    </FieldData>

    <Piece NumberOfPoints="16" NumberOfCells="4" >
      <Points>
        <DataArray type="Float64" NumberOfComponents="3" format="ascii">
-5.000000000000000e-01 -5.000000000000000e-01 1.000000000000000e+00
0.000000000000000e+00 -5.000000000000000e-01 1.000000000000000e+00
0.000000000000000e+00 0.000000000000000e+00 1.000000000000000e+00
-5.000000000000000e-01 0.000000000000000e+00 1.000000000000000e+00
-5.000000000000000e-01 0.000000000000000e+00 1.000000000000000e+00
0.000000000000000e+00 0.000000000000000e+00 1.000000000000000e+00
0.000000000000000e+00 5.000000000000000e-01 1.000000000000000e+00
-5.000000000000000e-01 5.000000000000000e-01 1.000000000000000e+00
0.000000000000000e+00 -5.000000000000000e-01 1.000000000000000e+00
5.000000000000000e-01 -5.000000000000000e-01 1.000000000000000e+00
5.000000000000000e-01 0.000000000000000e+00 1.000000000000000e+00
0.000000000000000e+00 0.000000000000000e+00 1.000000000000000e+00
0.000000000000000e+00 0.000000000000000e+00 1.000000000000000e+00
5.000000000000000e-01 0.000000000000000e+00 1.000000000000000e+00
5.000000000000000e-01 5.000000000000000e-01 1.000000000000000e+00
0.000000000000000e+00 5.000000000000000e-01 1.000000000000000e+00
        </DataArray>
      </Points>

      <Cells>
        <DataArray type="Int32" Name="connectivity" format="ascii">
0 1 2 3 4 5 6 7 8 9 10 11 12 13 14 15 
        </DataArray>
        <DataArray type="Int32" Name="offsets" format="ascii">
4 8 12 16 
        </DataArray>
        <DataArray type="UInt8" Name="types" format="ascii">
9 9 9 9 
        </DataArray>
      </Cells>

  <PointData>
        <DataArray type="Float64" Name="disp" NumberOfComponents="3" format="ascii">
0.000000000000000e+00 0.000000000000000e+00 -4.547581145039600e-03
0.000000000000000e+00 0.000000000000000e+00 -1.011553679448065e-03
-4.211447053907560e-18 -1.502406942377717e-17 -1.367968362870002e-02
0.000000000000000e+00 0.000000000000000e+00 -1.011553679448094e-03
0.000000000000000e+00 0.000000000000000e+00 -1.011553679448094e-03
-4.211447053907560e-18 -1.502406942377717e-17 -1.367968362870002e-02
0.000000000000000e+00 0.000000000000000e+00 -1.011553679448068e-03
0.000000000000000e+00 0.000000000000000e+00 -4.547581145039579e-03
0.000000000000000e+00 0.000000000000000e+00 -1.011553679448065e-03
0.000000000000000e+00 0.000000000000000e+00 -4.547581145039562e-03
0.000000000000000e+00 0.000000000000000e+00 -1.011553679448066e-03
-4.211447053907560e-18 -1.502406942377717e-17 -1.367968362870002e-02
-4.211447053907560e-18 -1.502406942377717e-17 -1.367968362870002e-02
0.000000000000000e+00 0.000000000000000e+00 -1.011553679448066e-03
0.000000000000000e+00 0.000000000000000e+00 -4.547581145039547e-03
0.000000000000000e+00 0.000000000000000e+00 -1.011553679448068e-03
        </DataArray>
        <DataArray type="Float64" Name="owner" format="ascii">
0.000000000000000e+00
0.000000000000000e+00
0.000000000000000e+00
0.000000000000000e+00
0.000000000000000e+00
0.000000000000000e+00
0.000000000000000e+00
0.000000000000000e+00
0.000000000000000e+00
0.000000000000000e+00
0.000000000000000e+00
0.000000000000000e+00
0.000000000000000e+00
0.000000000000000e+00
0.000000000000000e+00
0.000000000000000e+00
        </DataArray>
  </PointData>
  <CellData>
        <DataArray type="Float64" Name="id" format="ascii">
0.000000000000000e+00
1.000000000000000e+00
2.000000000000000e+00
3.000000000000000e+00
        </DataArray>
        <DataArray type="Float64" Name="owner" format="ascii">
0.000000000000000e+00
0.000000000000000e+00
0.000000000000000e+00
0.000000000000000e+00
        </DataArray>
      </CellData>

    </Piece>
  </UnstructuredGrid>
</VTKFile>
