<?xml version="1.0" ?> 
<!-- 
# vtk DataFile Version 3.0
-->
<VTKFile type="UnstructuredGrid" version="0.1" compressor="vtkZLibDataCompressor" byte_order="LittleEndian">
  <UnstructuredGrid>
    <FieldData>
      <DataArray type="Float64" Name="TIME" NumberOfTuples="1" format="ascii">
0.000000000000000e+00 
      </DataArray>
    </FieldData>

    <Piece NumberOfPoints="500" NumberOfCells="0" >
      <Points>
        <DataArray type="Float64" NumberOfComponents="3" format="ascii">
-4.500000000000000e-01 -4.500000000000000e-01 1.550000000000000e+00
-4.500000000000000e-01 -4.500000000000000e-01 1.650000000000000e+00
-4.500000000000000e-01 -4.500000000000000e-01 1.750000000000000e+00
-4.500000000000000e-01 -4.500000000000000e-01 1.850000000000000e+00
-4.500000000000000e-01 -4.500000000000000e-01 1.950000000000000e+00
-4.500000000000000e-01 -3.500000000000000e-01 1.550000000000000e+00
-4.500000000000000e-01 -3.500000000000000e-01 1.650000000000000e+00
-4.500000000000000e-01 -3.500000000000000e-01 1.750000000000000e+00
-4.500000000000000e-01 -3.500000000000000e-01 1.850000000000000e+00
-4.500000000000000e-01 -3.500000000000000e-01 1.950000000000000e+00
-4.500000000000000e-01 -2.500000000000000e-01 1.550000000000000e+00
-4.500000000000000e-01 -2.500000000000000e-01 1.650000000000000e+00
-4.500000000000000e-01 -2.500000000000000e-01 1.750000000000000e+00
-4.500000000000000e-01 -2.500000000000000e-01 1.850000000000000e+00
-4.500000000000000e-01 -2.500000000000000e-01 1.950000000000000e+00
-4.500000000000000e-01 -1.500000000000000e-01 1.550000000000000e+00
-4.500000000000000e-01 -1.500000000000000e-01 1.650000000000000e+00
-4.500000000000000e-01 -1.500000000000000e-01 1.750000000000000e+00
-4.500000000000000e-01 -1.500000000000000e-01 1.850000000000000e+00
-4.500000000000000e-01 -1.500000000000000e-01 1.950000000000000e+00
-4.500000000000000e-01 -4.999999999999999e-02 1.550000000000000e+00
-4.500000000000000e-01 -4.999999999999999e-02 1.650000000000000e+00
-4.500000000000000e-01 -4.999999999999999e-02 1.750000000000000e+00
-4.500000000000000e-01 -4.999999999999999e-02 1.850000000000000e+00
-4.500000000000000e-01 -4.999999999999999e-02 1.950000000000000e+00
-4.500000000000000e-01 4.999999999999999e-02 1.550000000000000e+00
-4.500000000000000e-01 4.999999999999999e-02 1.650000000000000e+00
-4.500000000000000e-01 4.999999999999999e-02 1.750000000000000e+00
-4.500000000000000e-01 4.999999999999999e-02 1.850000000000000e+00
-4.500000000000000e-01 4.999999999999999e-02 1.950000000000000e+00
-4.500000000000000e-01 1.500000000000001e-01 1.550000000000000e+00
-4.500000000000000e-01 1.500000000000001e-01 1.650000000000000e+00
-4.500000000000000e-01 1.500000000000001e-01 1.750000000000000e+00
-4.500000000000000e-01 1.500000000000001e-01 1.850000000000000e+00
-4.500000000000000e-01 1.500000000000001e-01 1.950000000000000e+00
-4.500000000000000e-01 2.500000000000001e-01 1.550000000000000e+00
-4.500000000000000e-01 2.500000000000001e-01 1.650000000000000e+00
-4.500000000000000e-01 2.500000000000001e-01 1.750000000000000e+00
-4.500000000000000e-01 2.500000000000001e-01 1.850000000000000e+00
-4.500000000000000e-01 2.500000000000001e-01 1.950000000000000e+00
-4.500000000000000e-01 3.500000000000000e-01 1.550000000000000e+00
-4.500000000000000e-01 3.500000000000000e-01 1.650000000000000e+00
-4.500000000000000e-01 3.500000000000000e-01 1.750000000000000e+00
-4.500000000000000e-01 3.500000000000000e-01 1.850000000000000e+00
-4.500000000000000e-01 3.500000000000000e-01 1.950000000000000e+00
-4.500000000000000e-01 4.500000000000000e-01 1.550000000000000e+00
-4.500000000000000e-01 4.500000000000000e-01 1.650000000000000e+00
-4.500000000000000e-01 4.500000000000000e-01 1.750000000000000e+00
-4.500000000000000e-01 4.500000000000000e-01 1.850000000000000e+00
-4.500000000000000e-01 4.500000000000000e-01 1.950000000000000e+00
-3.500000000000000e-01 -4.500000000000000e-01 1.550000000000000e+00
-3.500000000000000e-01 -4.500000000000000e-01 1.650000000000000e+00
-3.500000000000000e-01 -4.500000000000000e-01 1.750000000000000e+00
-3.500000000000000e-01 -4.500000000000000e-01 1.850000000000000e+00
-3.500000000000000e-01 -4.500000000000000e-01 1.950000000000000e+00
-3.500000000000000e-01 -3.500000000000000e-01 1.550000000000000e+00
-3.500000000000000e-01 -3.500000000000000e-01 1.650000000000000e+00
-3.500000000000000e-01 -3.500000000000000e-01 1.750000000000000e+00
-3.500000000000000e-01 -3.500000000000000e-01 1.850000000000000e+00
-3.500000000000000e-01 -3.500000000000000e-01 1.950000000000000e+00
-3.500000000000000e-01 -2.500000000000000e-01 1.550000000000000e+00
-3.500000000000000e-01 -2.500000000000000e-01 1.650000000000000e+00
-3.500000000000000e-01 -2.500000000000000e-01 1.750000000000000e+00
-3.500000000000000e-01 -2.500000000000000e-01 1.850000000000000e+00
-3.500000000000000e-01 -2.500000000000000e-01 1.950000000000000e+00
-3.500000000000000e-01 -1.500000000000000e-01 1.550000000000000e+00
-3.500000000000000e-01 -1.500000000000000e-01 1.650000000000000e+00
-3.500000000000000e-01 -1.500000000000000e-01 1.750000000000000e+00
-3.500000000000000e-01 -1.500000000000000e-01 1.850000000000000e+00
-3.500000000000000e-01 -1.500000000000000e-01 1.950000000000000e+00
-3.500000000000000e-01 -4.999999999999999e-02 1.550000000000000e+00
-3.500000000000000e-01 -4.999999999999999e-02 1.650000000000000e+00
-3.500000000000000e-01 -4.999999999999999e-02 1.750000000000000e+00
-3.500000000000000e-01 -4.999999999999999e-02 1.850000000000000e+00
-3.500000000000000e-01 -4.999999999999999e-02 1.950000000000000e+00
-3.500000000000000e-01 4.999999999999999e-02 1.550000000000000e+00
-3.500000000000000e-01 4.999999999999999e-02 1.650000000000000e+00
-3.500000000000000e-01 4.999999999999999e-02 1.750000000000000e+00
-3.500000000000000e-01 4.999999999999999e-02 1.850000000000000e+00
-3.500000000000000e-01 4.999999999999999e-02 1.950000000000000e+00
-3.500000000000000e-01 1.500000000000001e-01 1.550000000000000e+00
-3.500000000000000e-01 1.500000000000001e-01 1.650000000000000e+00
-3.500000000000000e-01 1.500000000000001e-01 1.750000000000000e+00
-3.500000000000000e-01 1.500000000000001e-01 1.850000000000000e+00
-3.500000000000000e-01 1.500000000000001e-01 1.950000000000000e+00
-3.500000000000000e-01 2.500000000000001e-01 1.550000000000000e+00
-3.500000000000000e-01 2.500000000000001e-01 1.650000000000000e+00
-3.500000000000000e-01 2.500000000000001e-01 1.750000000000000e+00
-3.500000000000000e-01 2.500000000000001e-01 1.850000000000000e+00
-3.500000000000000e-01 2.500000000000001e-01 1.950000000000000e+00
-3.500000000000000e-01 3.500000000000000e-01 1.550000000000000e+00
-3.500000000000000e-01 3.500000000000000e-01 1.650000000000000e+00
-3.500000000000000e-01 3.500000000000000e-01 1.750000000000000e+00
-3.500000000000000e-01 3.500000000000000e-01 1.850000000000000e+00
-3.500000000000000e-01 3.500000000000000e-01 1.950000000000000e+00
-3.500000000000000e-01 4.500000000000000e-01 1.550000000000000e+00
-3.500000000000000e-01 4.500000000000000e-01 1.650000000000000e+00
-3.500000000000000e-01 4.500000000000000e-01 1.750000000000000e+00
-3.500000000000000e-01 4.500000000000000e-01 1.850000000000000e+00
-3.500000000000000e-01 4.500000000000000e-01 1.950000000000000e+00
-2.500000000000000e-01 -4.500000000000000e-01 1.550000000000000e+00
-2.500000000000000e-01 -4.500000000000000e-01 1.650000000000000e+00
-2.500000000000000e-01 -4.500000000000000e-01 1.750000000000000e+00
-2.500000000000000e-01 -4.500000000000000e-01 1.850000000000000e+00
-2.500000000000000e-01 -4.500000000000000e-01 1.950000000000000e+00
-2.500000000000000e-01 -3.500000000000000e-01 1.550000000000000e+00
-2.500000000000000e-01 -3.500000000000000e-01 1.650000000000000e+00
-2.500000000000000e-01 -3.500000000000000e-01 1.750000000000000e+00
-2.500000000000000e-01 -3.500000000000000e-01 1.850000000000000e+00
-2.500000000000000e-01 -3.500000000000000e-01 1.950000000000000e+00
-2.500000000000000e-01 -2.500000000000000e-01 1.550000000000000e+00
-2.500000000000000e-01 -2.500000000000000e-01 1.650000000000000e+00
-2.500000000000000e-01 -2.500000000000000e-01 1.750000000000000e+00
-2.500000000000000e-01 -2.500000000000000e-01 1.850000000000000e+00
-2.500000000000000e-01 -2.500000000000000e-01 1.950000000000000e+00
-2.500000000000000e-01 -1.500000000000000e-01 1.550000000000000e+00
-2.500000000000000e-01 -1.500000000000000e-01 1.650000000000000e+00
-2.500000000000000e-01 -1.500000000000000e-01 1.750000000000000e+00
-2.500000000000000e-01 -1.500000000000000e-01 1.850000000000000e+00
-2.500000000000000e-01 -1.500000000000000e-01 1.950000000000000e+00
-2.500000000000000e-01 -4.999999999999999e-02 1.550000000000000e+00
-2.500000000000000e-01 -4.999999999999999e-02 1.650000000000000e+00
-2.500000000000000e-01 -4.999999999999999e-02 1.750000000000000e+00
-2.500000000000000e-01 -4.999999999999999e-02 1.850000000000000e+00
-2.500000000000000e-01 -4.999999999999999e-02 1.950000000000000e+00
-2.500000000000000e-01 4.999999999999999e-02 1.550000000000000e+00
-2.500000000000000e-01 4.999999999999999e-02 1.650000000000000e+00
-2.500000000000000e-01 4.999999999999999e-02 1.750000000000000e+00
-2.500000000000000e-01 4.999999999999999e-02 1.850000000000000e+00
-2.500000000000000e-01 4.999999999999999e-02 1.950000000000000e+00
-2.500000000000000e-01 1.500000000000001e-01 1.550000000000000e+00
-2.500000000000000e-01 1.500000000000001e-01 1.650000000000000e+00
-2.500000000000000e-01 1.500000000000001e-01 1.750000000000000e+00
-2.500000000000000e-01 1.500000000000001e-01 1.850000000000000e+00
-2.500000000000000e-01 1.500000000000001e-01 1.950000000000000e+00
-2.500000000000000e-01 2.500000000000001e-01 1.550000000000000e+00
-2.500000000000000e-01 2.500000000000001e-01 1.650000000000000e+00
-2.500000000000000e-01 2.500000000000001e-01 1.750000000000000e+00
-2.500000000000000e-01 2.500000000000001e-01 1.850000000000000e+00
-2.500000000000000e-01 2.500000000000001e-01 1.950000000000000e+00
[...]
  <PointData>
        <DataArray type="Float64" Name="acceleration" NumberOfComponents="3" format="ascii">
-2.182152028518125e-14 -8.527076614250895e-14 2.356621842114492e-15
1.043609643147647e-14 -7.216449660063518e-14 5.245248679841552e-13
4.407585407761871e-14 4.340972026284362e-14 -1.852962228099386e-13
3.728961583959745e-14 1.926662700365254e-13 -3.422540029163201e-13
3.816088070540680e-14 2.989954814226932e-13 2.473576898864849e-13
-2.302238261142620e-14 -3.951526605927569e-14 3.755676325489787e-16
-6.881214348331000e-15 -2.986066255372677e-14 5.799423441477103e-13
3.324597541709551e-14 -2.961172973492410e-14 -8.004577903286680e-14
2.775730356284131e-14 -8.395194261989758e-15 -1.574851360430785e-13
2.387270882277942e-14 3.777360368939497e-16 3.943512183468556e-13
-3.366404377480592e-14 4.344961890279109e-14 1.101159094463178e-14
-4.216332144535428e-14 5.992602247761880e-15 5.239888384300784e-13
3.805289416902724e-14 -8.704495457756423e-14 -1.554490043631507e-13
8.761220915420864e-15 -2.365080787464224e-13 -3.434752482434078e-13
-5.444342893179410e-14 -4.112899392805583e-13 2.144950883575802e-13
-1.177096614624062e-14 1.130779497815482e-14 2.452855626944306e-14
-1.821546385949446e-14 1.914874508956999e-14 4.753341817376189e-13
5.734995811579324e-14 -9.350159535514990e-15 -2.111709244967397e-13
-1.689186984732416e-14 -6.078675025356431e-14 -5.036804306968179e-13
-1.547611865049259e-13 -6.350824678430164e-14 7.327471962526033e-14
-9.773865744522325e-15 1.612052505373107e-13 3.775538909289722e-14
2.032748969149623e-14 1.602459484550955e-13 4.825788206541670e-13
7.407442714768564e-14 1.429342755265850e-13 -2.685403982516377e-13
3.762658587480594e-14 1.254163128059683e-13 -4.833078381949463e-13
-4.614928231227999e-14 1.560976892992123e-13 1.496580637194711e-13
1.071061642154980e-14 1.935448329382083e-13 2.391142839286431e-14
2.458753686762627e-14 1.538387472965752e-13 4.532589581440760e-13
4.403942488462320e-14 1.424416140594076e-13 -2.614167562975389e-13
4.874746439842426e-14 1.398485073946833e-13 -5.065670105608433e-13
2.998989945268704e-14 -5.016779634943458e-15 1.123545700920658e-13
-1.385740480697173e-14 -4.955931498518140e-13 2.476100921522395e-14
-4.790785823605148e-14 -4.927594790538059e-13 4.318789249835309e-13
4.914471607442294e-15 -4.424724475704522e-13 -2.249762875994321e-13
5.808076459015710e-14 -4.244608137193850e-13 -5.887790255343361e-13
5.238923173316729e-14 -3.232180148526886e-13 -5.329070518200751e-15
-3.876716656026069e-14 -4.554820062785403e-13 4.439591055893644e-15
-7.072467611557443e-14 -4.278192383688761e-13 4.961773179823492e-13
-6.817463260588852e-15 -3.912044299614337e-13 -1.941398430904684e-13
3.256509645277461e-14 -3.402205004266606e-13 -4.752032101151826e-13
2.140605401268481e-14 -1.161018302981917e-13 1.429967255717202e-13
-5.334274688628682e-16 3.803251116818451e-13 2.042636892962690e-14
-1.013078509970455e-14 4.026501354559286e-13 5.047073869945962e-13
1.387778780781446e-14 3.436140261214859e-13 -2.188665915170418e-13
1.260998277368211e-14 3.452654828706159e-13 -3.833877659786822e-13
-9.848939968703369e-15 2.808760168893087e-13 2.304822999121825e-13
8.031769693772617e-16 2.881419061684376e-13 3.802860804036357e-14
1.088018564132653e-14 2.816913369230178e-13 4.849454171562684e-13
2.775557561562891e-14 2.858269176897466e-13 -2.499112028431227e-13
1.854115819210911e-14 2.667575226466753e-13 -4.026778910315443e-13
8.962015157765180e-15 1.824402038946502e-13 1.998401444325282e-13
-6.271719255046548e-14 -1.717896658259832e-14 1.102980554112953e-14
-6.934383622869689e-14 -3.058490960494709e-14 5.422242516095466e-13
-9.254055854945875e-14 3.336046716650998e-14 -2.108252808441513e-13
-1.236389463032950e-13 1.043702545721302e-13 -3.951838856153245e-13
-1.414098872720704e-13 1.498921836260922e-13 2.242650509742816e-13
7.263469475405140e-14 -2.069559665784579e-14 2.357359099591783e-14
5.294411962878179e-14 -5.290547459759626e-15 5.549957195205568e-13
-4.862606763642377e-14 -4.741033141162504e-15 -1.729194044897131e-13
-2.047157202870326e-13 -8.662341677290186e-15 -3.228528555609955e-13
-3.032413933129995e-13 -2.279095965770916e-14 2.757793993168889e-13
2.739198405780978e-03 1.369599202844030e-03 -1.369599202847388e-03
8.509863549509972e-14 -3.305174737415831e-14 5.560235431800731e-13
4.522378700905563e-14 -4.713373110863325e-14 -1.906396047968162e-13
-5.884888117178161e-14 -1.514670550442632e-13 -4.751754545395670e-13
-1.277545913025771e-13 -3.321193824514304e-13 1.367794766338193e-13
1.388840620868819e-02 1.369599202844269e-03 -6.955393797348657e-03
2.238138610758853e-05 1.471562536539336e-14 -2.238138550678481e-05
7.782833486838156e-14 1.965468803336035e-15 -2.123214798421813e-13
2.732169823499095e-14 -3.436832117726177e-14 -6.444844657949034e-13
-1.837153476222375e-15 -4.568475589147858e-14 -3.153033389935445e-14
1.662760461435752e-02 1.643667840722784e-13 -8.324993000173066e-03
2.238138607403994e-05 1.751214868646669e-13 -2.238138548422343e-05
6.720862879899467e-14 1.477235759932138e-13 -2.518094240067104e-13
1.722242276092426e-14 1.693535448595712e-13 -5.671574321297612e-13
-1.937091844350300e-14 2.527525511477648e-13 8.748557434046234e-14
1.662760461436427e-02 2.499699666008715e-13 -8.324993000174264e-03
2.238138608903009e-05 1.907007470230808e-13 -2.238138554665278e-05
5.924467595111102e-14 1.350564557650417e-13 -2.619805414272314e-13
3.024004522267018e-14 1.881288229583014e-13 -4.945210907436604e-13
3.433237987524387e-14 1.325414252092635e-13 1.318944953254686e-13
1.388840620870039e-02 -1.369599203358788e-03 -6.955393797318220e-03
2.238138614571749e-05 -5.107685108196591e-13 -2.238138560112966e-05
4.728560072794416e-14 -4.683307235943401e-13 -2.245998526051451e-13
7.050290933745609e-14 -4.243011310681687e-13 -4.611866444292900e-13
1.618627310634967e-13 -2.942271873731563e-13 1.074695887837152e-13
2.739198405739366e-03 -1.369599203307444e-03 -1.369599202843842e-03
9.820033783532189e-14 -4.052546194672005e-13 5.180179202257662e-13
4.273727097041380e-14 -3.625144482559753e-13 -2.044527741551505e-13
4.289811236270202e-14 -3.932577259170046e-13 -4.162781230832024e-13
8.479303278399394e-14 -2.651370673034149e-13 1.922906278650771e-13
6.409803243734302e-15 3.690372660236640e-13 5.146230663832796e-14
8.262140971382337e-14 4.012333000569246e-13 5.428539562313262e-13
6.615888392680347e-14 3.359725692098081e-13 -2.558504623439983e-13
5.479124098872745e-15 3.053331377881122e-13 -4.330147351794267e-13
-3.273900248124129e-14 2.277166085903892e-13 2.007283228522283e-13
-8.685737404919708e-14 2.300425475110224e-13 6.141071538009329e-14
-3.686634331145910e-14 2.017023700839893e-13 5.197769298304067e-13
-4.350686477749832e-14 2.281404232196138e-13 -2.815404159806079e-13
-8.118419131397658e-14 2.452434685450838e-13 -4.292399768957011e-13
-8.190410155650696e-14 1.962163951826391e-13 1.971756091734278e-13
-4.202888037596608e-14 7.807643420676413e-14 1.815214645262131e-14
-3.780309398848658e-14 3.308464613382966e-14 5.078160114635466e-13
-7.410738689372920e-14 6.361577931102147e-14 -2.149946887186616e-13
-6.107571046132243e-14 1.019759160469404e-13 -4.136968545509490e-13
-8.398750445115510e-14 1.252283528068408e-13 1.776356839400250e-13
1.369599202873060e-03 2.739198405812038e-03 -1.369599202826761e-03
2.295212631064913e-14 1.218400380587070e-13 5.033872624293778e-13
-1.365921264984138e-14 1.014466288751237e-13 -2.409860505592221e-13
-4.103141437727942e-14 1.719697789118874e-14 -4.425626531912030e-13
-1.003255638287737e-13 -6.729778409889087e-14 1.771915947301750e-13
5.933340179502701e-02 5.933340179490618e-02 -5.933340179490149e-02
1.369599202967021e-03 1.369599202853780e-03 -2.739198405180776e-03
5.701255439971575e-14 3.485189567498104e-14 -2.549059054113290e-13
-2.915624284973578e-14 -1.732555749258194e-14 -6.003253449904378e-13
-1.715975926348638e-13 -1.588164888770456e-13 4.840572387365683e-14
2.211306157941985e-01 5.933340179486368e-02 -2.211306157941340e-01
6.955393797455841e-03 1.369599202846649e-03 -1.388840620808983e-02
8.192838768517063e-14 1.122799769825988e-15 -2.497520419642019e-13
-9.304351993727478e-15 -5.072570645860489e-14 -6.989686607283829e-13
-1.284805120909012e-13 -4.157851634604276e-14 -3.641531520770513e-14
2.790944183862580e-01 2.739198405835947e-03 -2.790944183861708e-01
8.324993000318486e-03 1.450228825916611e-13 -1.662760461376177e-02
7.531388707127107e-14 1.218912124012483e-13 -3.118516729572196e-13
-6.698822404985552e-14 1.208457840089563e-13 -6.709632849322134e-13
-1.804215346459630e-13 1.933645911032962e-13 5.195843755245733e-14
2.790944183862181e-01 -2.739198405473185e-03 -2.790944183861374e-01
8.324993000288002e-03 1.903418828802517e-13 -1.662760461382406e-02
5.977206576912586e-14 1.092528845170193e-13 -3.127324788021468e-13
-3.393107599362552e-14 2.049513580766951e-13 -5.665745650418330e-13
-1.120774480167785e-13 1.888375997997731e-13 1.083577672034153e-13
2.211306157941574e-01 -5.933340179539658e-02 -2.211306157940393e-01
6.955393797417901e-03 -1.369599203339817e-03 -1.388840620821018e-02
3.104200924086697e-14 -4.898442762524269e-13 -2.926847132711519e-13
-4.536902266632364e-14 -4.176449632095278e-13 -4.755917881738014e-13
-1.448685938462528e-13 -2.707251266155682e-13 1.025846074753645e-13
5.933340179495371e-02 -5.933340179538119e-02 -5.933340179484733e-02
1.369599202930072e-03 -1.369599203274465e-03 -2.739198405185572e-03
2.999336889963899e-14 -3.455634216276149e-13 -2.698279967516815e-13
-9.225367865461909e-15 -3.840381788619562e-13 -4.138356324290271e-13
-5.780120305998171e-14 -2.694040601497125e-13 1.834088436680759e-13
1.369599202861369e-03 -2.739198405419932e-03 -1.369599202779453e-03
2.322030371801342e-14 3.110810220530169e-13 5.752847403637205e-13
-8.594687461727091e-15 2.723433457918478e-13 -3.041148062543630e-13
-5.173899503274626e-14 2.162080600274716e-13 -4.883871085326064e-13
-8.287034253262604e-14 1.133781992444273e-13 1.656452752740734e-13
-4.533001171690490e-14 1.764135712511994e-13 8.115389463951919e-14
-3.260982656865322e-14 1.125128636092487e-13 5.343949160139042e-13
-6.284366473388592e-14 1.310431797796330e-13 -3.056633044546883e-13
-1.087038445368727e-13 2.092357862491789e-13 -4.891087534986127e-13
-1.854428069436587e-13 1.933667052975326e-13 1.367794766338193e-13
2.488200617767333e-14 4.276093368282829e-14 5.081742318613358e-14
4.645329260144493e-14 2.226430845242433e-14 5.008120654292902e-13
4.227174166260284e-14 7.334063911734745e-14 -2.358039978556103e-13
1.537008367802351e-14 1.376064857222005e-13 -4.421185639813530e-13
-5.312590645178972e-16 2.008641937132315e-13 1.385558334732195e-13
1.369599202837983e-03 1.388840620880770e-02 -6.955393797284638e-03
2.636135938444834e-14 2.238138620654839e-05 -2.238138553552924e-05
2.859699104037702e-14 1.205215669018017e-13 -2.606773304159038e-13
1.266844159956981e-14 -8.274617427882214e-15 -4.919398222114069e-13
2.681028684649311e-15 -1.634570029242916e-13 1.221245327087672e-13
5.933340179491114e-02 2.211306157941216e-01 -2.211306157940690e-01
1.369599202886874e-03 6.955393797357526e-03 -1.388840620815272e-02
9.133319101017889e-15 3.208197596471507e-14 -2.991235731331088e-13
-1.187288115045426e-14 -4.840228153175918e-14 -7.367439991412539e-13
-1.103154026460551e-14 -2.189024718326875e-13 -1.008082506359642e-13
2.211306157941019e-01 2.211306157940479e-01 -7.847187738036205e-01
6.955393797351635e-03 6.955393797326801e-03 -6.156406346651539e-02
-3.772850087901958e-14 -1.168813310026273e-14 -3.044084082026721e-13
-5.880593321322403e-14 -9.402174134739982e-14 -8.511802374044919e-13
-3.511324260865867e-14 -7.194256719219097e-14 -1.834088436680759e-13
2.790944183861579e-01 1.388840620880705e-02 -9.988939958003616e-01
8.324993000188753e-03 2.238138620558219e-05 -7.543008828909988e-02
-4.832852867897586e-14 1.404232632951086e-13 -3.855826248566618e-13
-6.513245617758429e-14 1.610840028531089e-13 -8.278100427361323e-13
-4.645165274565904e-14 2.668484465513654e-13 -7.238654120556021e-14
2.790944183861459e-01 -1.388840620844276e-02 -9.988939958002924e-01
8.324993000194613e-03 -2.238138587174593e-05 -7.543008828916166e-02
-1.119590531395431e-14 1.142974603851599e-13 -3.462737908910274e-13
-1.622009818125214e-14 2.451373725862425e-13 -6.584732759051803e-13
-1.803461893712388e-14 2.262680670541035e-13 4.307665335545607e-14
2.211306157941209e-01 -2.211306157945766e-01 -7.847187738034640e-01
6.955393797388680e-03 -6.955393797819003e-03 -6.156406346665985e-02
1.577384056705711e-14 -4.933310704391403e-13 -3.170415319164732e-13
-1.225495399603815e-14 -4.236268928421542e-13 -5.884737142025642e-13
-2.313036914780575e-14 -2.742687939824920e-13 -1.776356839400250e-15
5.933340179495673e-02 -2.211306157945882e-01 -2.211306157939919e-01
1.369599202897641e-03 -6.955393797792978e-03 -1.388840620817039e-02
-1.085069534223493e-14 -3.797088511670044e-13 -3.091468053773028e-13
-3.712393619511450e-14 -3.891717338471400e-13 -4.603262215852055e-13
-1.678316502700533e-14 -2.033169233016732e-13 1.496580637194711e-13
1.369599202889504e-03 -1.388840620839314e-02 -6.955393797262947e-03
1.033966342449746e-14 -2.238138576615127e-05 -2.238138550640524e-05
-3.594173569876347e-14 2.489519007609076e-13 -3.461011859051677e-13
-4.389457547437914e-14 1.760639024980457e-13 -5.174471962021698e-13
-1.109008718191973e-14 2.702573137069314e-14 1.505462421391712e-13
4.148047736459576e-14 1.728200915707134e-13 1.003968975554596e-13
2.717760099000405e-14 1.278113899438882e-13 5.064226693703676e-13
5.162293119018169e-15 1.537502763993004e-13 -3.366545459288287e-13
-5.675581532527119e-15 2.434648958674936e-13 -5.737632591262809e-13
-2.435985441140431e-15 2.108122704180815e-13 4.263256414560601e-14
1.371160129881588e-13 3.857634697790324e-14 3.619674004973206e-14
1.259626083993659e-13 4.417776908183235e-14 5.154821881847571e-13
1.345520916906651e-13 8.772843562709909e-14 -2.354986865238384e-13
1.890761852640921e-13 1.590884880970679e-13 -4.099776074184547e-13
2.316449983219560e-13 2.170904853993939e-13 1.794120407794253e-13
1.581612445178404e-13 1.662760461449706e-02 -8.324993000136449e-03
1.476395638773734e-13 2.238138619093521e-05 -2.238138551531711e-05
1.554535038021665e-13 1.108993742649465e-13 -2.522392017478836e-13
2.868051865337166e-13 1.604023581710037e-14 -3.828604100419852e-13
4.210192239870007e-13 -6.481393790809878e-14 2.189359804560809e-13
2.739198405830221e-03 2.790944183861835e-01 -2.790944183861283e-01
1.125282592800980e-13 8.324993000202773e-03 -1.662760461383974e-02
1.372584568248326e-13 4.203038470648041e-15 -3.089928486688098e-13
2.304795284203791e-13 -8.877437901542301e-14 -5.816458426011195e-13
4.022723858665075e-13 -2.124206504596458e-13 7.727152251391090e-14
1.388840620879169e-02 2.790944183860959e-01 -9.988939958003779e-01
2.238138616537962e-05 8.324993000150121e-03 -7.543008828914341e-02
1.234255753157498e-13 -5.665390032105755e-14 -3.238759087309528e-13
2.014967443657138e-13 -1.129239049816287e-13 -6.662170815019408e-13
3.782240905018941e-13 -8.064806011594608e-14 2.886579864025407e-14
1.662760461445148e-02 1.662760461446145e-02 -1.269663421186328e+00
2.238138612418124e-05 2.238138615925488e-05 -9.203531151744138e-02
9.972404846347871e-14 1.350725087334581e-13 -3.720734657874925e-13
1.933257495604669e-13 1.395735740525317e-13 -6.710187960834446e-13
3.176941064278287e-13 1.567864761631288e-13 8.304468224196171e-14
1.662760461439326e-02 -1.662760461416742e-02 -1.269663421186243e+00
2.238138610803313e-05 -2.238138582709936e-05 -9.203531151745545e-02
1.083559714935671e-13 1.692934394016340e-13 -3.231330134023658e-13
1.100444876282053e-13 2.274813909290685e-13 -6.249722961371162e-13
9.771590952839179e-14 1.345101601716442e-13 8.437694987151190e-14
1.388840620869480e-02 -2.790944183865562e-01 -9.988939958001699e-01
2.238138614368432e-05 -8.324993000614565e-03 -7.543008828923475e-02
1.472554513764525e-13 -4.885449209350752e-13 -3.486156675835961e-13
6.916841231718873e-14 -4.374082137616718e-13 -6.046552147864759e-13
-1.457923950835827e-14 -2.765392827382661e-13 2.930988785010413e-14
2.739198405834148e-03 -2.790944183866119e-01 -2.790944183860116e-01
1.215327751630246e-13 -8.324993000669273e-03 -1.662760461391115e-02
1.312248920637415e-13 -4.154046898130481e-13 -3.460595525417443e-13
1.023261540062347e-13 -3.875787088188434e-13 -4.529709940470639e-13
4.260342621222046e-14 -1.915167921169927e-13 1.771915947301750e-13
1.252238330390343e-13 -1.662760461412508e-02 -8.324993000122946e-03
1.067985489541096e-13 -2.238138578947896e-05 -2.238138553617868e-05
1.247483019661821e-13 2.646246936854890e-13 -3.493563945078382e-13
1.589947791480473e-13 2.309560759327679e-13 -4.659050922839469e-13
1.488887138578754e-13 1.170924522706646e-13 1.958433415438776e-13
1.159535385460500e-13 1.824963791197121e-13 7.193842689514479e-14
9.835721511341697e-14 1.514014608128278e-13 5.062600797020762e-13
1.354258569977347e-13 1.884074493641030e-13 -3.218246727595096e-13
1.897379822701772e-13 2.542127139760868e-13 -4.963529587342919e-13
2.310434829566610e-13 2.005687282924384e-13 1.314504061156185e-13
2.341976439168558e-13 9.284240043427872e-14 3.430589146091734e-14
1.999789223106063e-13 7.896461262646426e-14 4.807265696626928e-13
1.605937605120289e-13 9.275913370743183e-14 -2.151057110211241e-13
1.875175362209269e-13 2.319926003147184e-13 -3.115840918610502e-13
1.583533651428048e-13 3.526510951746414e-13 2.366995488500834e-13
2.615711466869008e-13 1.662760461447325e-02 -8.324993000145066e-03
2.178587171774993e-13 2.238138617334120e-05 -2.238138555956915e-05
1.724835552163739e-13 1.156227891208061e-13 -2.135162706362603e-13
2.052498795923619e-13 3.464022552959398e-14 -1.670885652060861e-13
1.794233164820191e-13 -1.049284086267893e-15 3.881339694089547e-13
-2.739198405526308e-03 2.790944183861319e-01 -2.790944183861288e-01
1.757350775316580e-13 8.324993000173184e-03 -1.662760461385214e-02
1.418075726289381e-13 -2.036825569318168e-14 -2.851963457062290e-13
1.884565501699895e-13 -1.716271981304363e-13 -4.141409437607990e-13
1.813345209666223e-13 -3.233217120142233e-13 2.207123372954811e-13
-1.388840620852200e-02 2.790944183860913e-01 -9.988939958003210e-01
-2.238138588231040e-05 8.324993000169662e-03 -7.543008828915784e-02
1.399635615739747e-13 -4.042426116068754e-14 -3.041317198082538e-13
2.175713358391548e-13 -7.362754611724143e-14 -5.298539385023560e-13
2.046730772603360e-13 -5.875311223863325e-14 1.452171716209705e-13
-1.662760461421023e-02 1.662760461443780e-02 -1.269663421186242e+00
-2.238138583926974e-05 2.238138615810585e-05 -9.203531151744918e-02
1.624030770974727e-13 1.262870016893736e-13 -3.429990666492522e-13
2.399328701213968e-13 9.487411399035361e-14 -5.528633106877123e-13
2.184221905990671e-13 5.141715639410752e-14 1.625366508051229e-13
-1.662760461418884e-02 -1.662760461420626e-02 -1.269663421186157e+00
-2.238138582621074e-05 -2.238138585287258e-05 -9.203531151743996e-02
1.469688086508381e-13 1.692812556797207e-13 -3.269507060921217e-13
1.543830235634265e-13 1.104422475239723e-13 -6.623868120669840e-13
9.271005323033613e-14 -1.103879154426037e-13 4.307665335545607e-14
-1.388840620852461e-02 -2.790944183865329e-01 -9.988939958001377e-01
-2.238138589949305e-05 -8.324993000624590e-03 -7.543008828917995e-02
1.241454855582802e-13 -4.724857657900650e-13 -3.475227917937307e-13
7.262606179425299e-14 -4.376455456172289e-13 -8.014422459012849e-13
-9.064388237396692e-14 -3.336000028194945e-13 -1.403321903126198e-13
-2.739198405590323e-03 -2.790944183865722e-01 -2.790944183860368e-01
1.311641767420824e-13 -8.324993000654255e-03 -1.662760461388399e-02
1.387822148868345e-13 -4.242149166666653e-13 -3.243889531989730e-13
9.127018531143033e-14 -3.143460833429298e-13 -5.941636072037682e-13
-9.589524270145477e-14 -4.112531306168024e-14 3.952393967665557e-14
1.195809944121162e-13 -1.662760461412575e-02 -8.324993000135339e-03
1.480995366490503e-13 -2.238138578117447e-05 -2.238138552357182e-05
1.430661145107592e-13 2.760305005400365e-13 -3.151112183685800e-13
1.534232810240788e-13 2.864285211464680e-13 -4.719558077681540e-13