<?xml version="1.0" ?> 
<!-- 
# vtk DataFile Version 3.0
-->
<VTKFile type="UnstructuredGrid" version="0.1" compressor="vtkZLibDataCompressor" byte_order="LittleEndian">
  <UnstructuredGrid>
    <FieldData>
      <DataArray type="Float64" Name="TIME" NumberOfTuples="1" format="ascii">
1.250000000000001e-01 
      </DataArray>
    </FieldData>

    <Piece NumberOfPoints="300" NumberOfCells="0" >
      <Points>
        <DataArray type="Float64" NumberOfComponents="3" format="ascii">
-4.499799405240456e-01 -4.499799405240455e-01 1.984375000000000e+00
-4.499745201456039e-01 -3.499463879277772e-01 1.984375000000000e+00
-4.499662902678365e-01 -2.499279439166837e-01 1.984375000000000e+00
-3.499463879277771e-01 -4.499745201456039e-01 1.984375000000000e+00
-3.499338818175368e-01 -3.499338818175369e-01 1.984375000000000e+00
-3.499178993854478e-01 -2.499090019593440e-01 1.984375000000000e+00
-2.499279439166837e-01 -4.499662902678364e-01 1.984375000000000e+00
-2.499090019593440e-01 -3.499178993854477e-01 1.984375000000000e+00
-2.498813449403751e-01 -2.498813449403751e-01 1.984375000000000e+00
-1.499362381819555e-01 -4.499543355064725e-01 1.984375000000000e+00
-1.499150357667535e-01 -3.498899234674871e-01 1.984375000000000e+00
-1.498817808212861e-01 -2.498256732080542e-01 1.984375000000000e+00
-4.997461989353386e-02 -4.499458660818361e-01 1.984375000000000e+00
-4.996654264520467e-02 -3.498716737135594e-01 1.984375000000000e+00
-4.995567100987092e-02 -2.497894206329344e-01 1.984375000000000e+00
-4.499843125015131e-01 4.499843125015131e-01 1.984375000000000e+00
-4.499911762782887e-01 4.499911762782888e-01 1.984375000000000e+00
-3.499359808969444e-01 2.499331972331287e-01 1.984375000000000e+00
-3.499682745676451e-01 2.499659014478089e-01 1.984375000000000e+00
-3.499500843558462e-01 3.499500843558463e-01 1.984375000000000e+00
-3.499735718758645e-01 3.499735718758646e-01 1.984375000000000e+00
-4.499543355064725e-01 -1.499362381819556e-01 1.984375000000000e+00
-4.499458660818361e-01 -4.997461989353383e-02 1.984375000000000e+00
-3.499582836241040e-01 4.499813806971750e-01 1.984375000000000e+00
-3.499766815601855e-01 4.499900274138261e-01 1.984375000000000e+00
-3.498899234674870e-01 -1.499150357667535e-01 1.984375000000000e+00
-3.498716737135594e-01 -4.996654264520461e-02 1.984375000000000e+00
-2.499118198092725e-01 2.499118198092725e-01 1.984375000000000e+00
-2.499583474942991e-01 2.499583474942992e-01 1.984375000000000e+00
-2.498256732080542e-01 -1.498817808212861e-01 1.984375000000000e+00
-2.497894206329343e-01 -4.995567100987089e-02 1.984375000000000e+00
-2.499331972331287e-01 3.499359808969446e-01 1.984375000000000e+00
-2.499659014478089e-01 3.499682745676452e-01 1.984375000000000e+00
-1.498166240641338e-01 -1.498166240641338e-01 1.984375000000000e+00
-1.497735594967312e-01 -4.993173683204866e-02 1.984375000000000e+00
-2.499457033143207e-01 4.499761492123633e-01 1.984375000000000e+00
-2.499702893402647e-01 4.499880794351393e-01 1.984375000000000e+00
-4.993173683204860e-02 -1.497735594967312e-01 1.984375000000000e+00
-4.991678347424727e-02 -4.991678347424719e-02 1.984375000000000e+00
-1.499202888321506e-01 2.498828732439003e-01 1.984375000000000e+00
-1.499641594328243e-01 2.499492101547759e-01 1.984375000000000e+00
-1.499415447250726e-01 3.499174794726915e-01 1.984375000000000e+00
-1.499711362121488e-01 3.499619689362483e-01 1.984375000000000e+00
-1.499537125075000e-01 4.499693831338213e-01 1.984375000000000e+00
-1.499751511095142e-01 4.499857953867107e-01 1.984375000000000e+00
-4.996811320023736e-02 2.498630868645433e-01 1.984375000000000e+00
-4.998597843744884e-02 2.499431553441700e-01 1.984375000000000e+00
-4.997686577387045e-02 3.499049125072225e-01 1.984375000000000e+00
-4.499843125015131e-01 -4.499843125015131e-01 1.984375000000000e+00
-4.499911762782888e-01 -4.499911762782888e-01 1.984375000000000e+00
-4.499813806971749e-01 -3.499582836241040e-01 1.984375000000000e+00
-4.499900274138261e-01 -3.499766815601856e-01 1.984375000000000e+00
-4.499761492123632e-01 -2.499457033143208e-01 1.984375000000000e+00
-4.499880794351392e-01 -2.499702893402647e-01 1.984375000000000e+00
-3.499582836241040e-01 -4.499813806971750e-01 1.984375000000000e+00
-3.499766815601856e-01 -4.499900274138260e-01 1.984375000000000e+00
-3.499500843558462e-01 -3.499500843558462e-01 1.984375000000000e+00
-3.499735718758644e-01 -3.499735718758645e-01 1.984375000000000e+00
-3.499359808969445e-01 -2.499331972331287e-01 1.984375000000000e+00
-3.499682745676451e-01 -2.499659014478089e-01 1.984375000000000e+00
-2.499457033143207e-01 -4.499761492123632e-01 1.984375000000000e+00
-2.499702893402647e-01 -4.499880794351392e-01 1.984375000000000e+00
-2.499331972331286e-01 -3.499359808969444e-01 1.984375000000000e+00
-2.499659014478089e-01 -3.499682745676451e-01 1.984375000000000e+00
-2.499118198092725e-01 -2.499118198092724e-01 1.984375000000000e+00
-2.499583474942991e-01 -2.499583474942990e-01 1.984375000000000e+00
-1.499537125075000e-01 -4.499693831338210e-01 1.984375000000000e+00
-1.499751511095142e-01 -4.499857953867106e-01 1.984375000000000e+00
-1.499415447250725e-01 -3.499174794726915e-01 1.984375000000000e+00
-1.499711362121488e-01 -3.499619689362484e-01 1.984375000000000e+00
-1.499202888321506e-01 -2.498828732439003e-01 1.984375000000000e+00
-1.499641594328242e-01 -2.499492101547760e-01 1.984375000000000e+00
-4.998193501235473e-02 -4.499648091726311e-01 1.984375000000000e+00
-4.999037834704784e-02 -4.499843071761533e-01 1.984375000000000e+00
-4.997686577387045e-02 -3.499049125072226e-01 1.984375000000000e+00
-4.998878354178699e-02 -3.499578384378869e-01 1.984375000000000e+00
-4.996811320023736e-02 -2.498630868645433e-01 1.984375000000000e+00
-4.998597843744884e-02 -2.499431553441699e-01 1.984375000000000e+00
-4.998878354178699e-02 3.499578384378871e-01 1.984375000000000e+00
-4.998193501235476e-02 4.499648091726311e-01 1.984375000000000e+00
-4.999037834704786e-02 4.499843071761533e-01 1.984375000000000e+00
4.499799405240456e-01 4.499799405240456e-01 1.984375000000000e+00
1.498907412350119e-01 1.498907412350119e-01 1.984375000000000e+00
1.499556154556033e-01 1.499556154556033e-01 1.984375000000000e+00
2.498828732439003e-01 -1.499202888321506e-01 1.984375000000000e+00
2.499492101547759e-01 -1.499641594328243e-01 1.984375000000000e+00
2.498630868645433e-01 -4.996811320023742e-02 1.984375000000000e+00
2.499431553441700e-01 -4.998597843744887e-02 1.984375000000000e+00
4.996811320023742e-02 2.498630868645434e-01 1.984375000000000e+00
4.998597843744895e-02 2.499431553441700e-01 1.984375000000000e+00
4.997686577387050e-02 3.499049125072223e-01 1.984375000000000e+00
4.998878354178710e-02 3.499578384378871e-01 1.984375000000000e+00
3.499174794726914e-01 -1.499415447250725e-01 1.984375000000000e+00
3.499619689362484e-01 -1.499711362121487e-01 1.984375000000000e+00
3.499049125072225e-01 -4.997686577387045e-02 1.984375000000000e+00
3.499578384378870e-01 -4.998878354178699e-02 1.984375000000000e+00
-4.499693831338211e-01 -1.499537125075001e-01 1.984375000000000e+00
-4.499857953867107e-01 -1.499751511095141e-01 1.984375000000000e+00
-4.499648091726310e-01 -4.998193501235471e-02 1.984375000000000e+00
-4.499843071761532e-01 -4.999037834704778e-02 1.984375000000000e+00
2.498630868645434e-01 4.996811320023747e-02 1.984375000000000e+00
2.499431553441700e-01 4.998597843744892e-02 1.984375000000000e+00
2.498828732439003e-01 1.499202888321507e-01 1.984375000000000e+00
2.499492101547760e-01 1.499641594328244e-01 1.984375000000000e+00
-3.499174794726914e-01 -1.499415447250725e-01 1.984375000000000e+00
-3.499619689362483e-01 -1.499711362121487e-01 1.984375000000000e+00
-3.499049125072224e-01 -4.997686577387042e-02 1.984375000000000e+00
-3.499578384378870e-01 -4.998878354178693e-02 1.984375000000000e+00
4.499693831338210e-01 -1.499537125075001e-01 1.984375000000000e+00
4.499857953867107e-01 -1.499751511095142e-01 1.984375000000000e+00
4.499648091726311e-01 -4.998193501235476e-02 1.984375000000000e+00
4.499843071761533e-01 -4.999037834704778e-02 1.984375000000000e+00
-2.498828732439003e-01 -1.499202888321507e-01 1.984375000000000e+00
-2.499492101547759e-01 -1.499641594328242e-01 1.984375000000000e+00
-2.498630868645433e-01 -4.996811320023742e-02 1.984375000000000e+00
-2.499431553441699e-01 -4.998597843744887e-02 1.984375000000000e+00
4.998193501235471e-02 4.499648091726310e-01 1.984375000000000e+00
4.997461989353386e-02 -4.499458660818361e-01 1.984375000000000e+00
4.996654264520467e-02 -3.498716737135594e-01 1.984375000000000e+00
4.995567100987097e-02 -2.497894206329344e-01 1.984375000000000e+00
-1.498907412350118e-01 -1.498907412350119e-01 1.984375000000000e+00
-1.499556154556032e-01 -1.499556154556032e-01 1.984375000000000e+00
-1.498702737621016e-01 -4.995600695167751e-02 1.984375000000000e+00
-1.499499198844959e-01 -4.998249850180120e-02 1.984375000000000e+00
1.499362381819555e-01 -4.499543355064725e-01 1.984375000000000e+00
1.499150357667535e-01 -3.498899234674871e-01 1.984375000000000e+00
1.498817808212861e-01 -2.498256732080542e-01 1.984375000000000e+00
2.499279439166837e-01 -4.499662902678365e-01 1.984375000000000e+00
-4.995600695167748e-02 -1.498702737621017e-01 1.984375000000000e+00
-4.998249850180120e-02 -1.499499198844959e-01 1.984375000000000e+00
-4.994756706585660e-02 -4.994756706585665e-02 1.984375000000000e+00
-4.998017041761937e-02 -4.998017041761935e-02 1.984375000000000e+00
2.499090019593440e-01 -3.499178993854478e-01 1.984375000000000e+00
2.498813449403753e-01 -2.498813449403751e-01 1.984375000000000e+00
3.499463879277772e-01 -4.499745201456039e-01 1.984375000000000e+00
3.499338818175368e-01 -3.499338818175369e-01 1.984375000000000e+00
3.499178993854478e-01 -2.499090019593440e-01 1.984375000000000e+00
4.499799405240455e-01 -4.499799405240454e-01 1.984375000000000e+00
4.499745201456040e-01 -3.499463879277772e-01 1.984375000000000e+00
4.499662902678365e-01 -2.499279439166837e-01 1.984375000000000e+00
4.999037834704789e-02 4.499843071761533e-01 1.984375000000000e+00
[...]
  <PointData>
        <DataArray type="Float64" Name="contact force" NumberOfComponents="3" format="ascii">
1.394752411536236e-14 1.394752411508250e-14 3.056506990848458e-10
1.721509105583608e-14 3.095055604698459e-14 3.017399234131749e-10
1.911432580268536e-14 4.568669972598032e-14 2.955025612872775e-10
3.095055604715768e-14 1.721509105565255e-14 3.017399234132606e-10
2.823659305996356e-14 2.823659305978669e-14 2.958852328479587e-10
1.796515193837649e-14 4.958072339315822e-14 2.877326574815944e-10
4.568669972582608e-14 1.911432580261886e-14 2.955025612874402e-10
4.958072339316463e-14 1.796515193830175e-14 2.877326574816784e-10
5.750672657791530e-14 5.750672657782406e-14 2.776845586480268e-10
4.542921413738197e-14 2.829173981304688e-14 2.866975060441907e-10
5.644906628104166e-14 3.063490116712655e-14 2.723815151982271e-10
7.833879392198457e-14 1.040045483946827e-13 2.482610952465756e-10
1.710589826743762e-14 3.398476964638900e-14 2.806681606758465e-10
1.894207514519107e-14 3.932778040378920e-14 2.621636671202271e-10
2.403864224766678e-14 1.347829185729570e-13 2.296250600526016e-10
1.168743308871761e-08 -1.168743308733370e-08 8.829421164905186e-04
-4.097002700649595e-07 4.097002701094298e-07 1.154389368454165e-02
9.735572743909167e-08 -1.039910528479189e-07 8.827953397212794e-04
2.298902112576974e-07 3.794723802958381e-07 1.157764997778378e-02
5.702218183688586e-08 -5.702218183584159e-08 8.827759093173169e-04
-6.303674674863986e-07 6.303674675187517e-07 1.156158432494553e-02
2.829173981306096e-14 4.542921413756840e-14 2.866975060442619e-10
3.398476964633340e-14 1.710589826755690e-14 2.806681606759248e-10
2.645037729367883e-08 -2.662393370205938e-08 8.828199440749563e-04
-1.110830333693601e-06 2.247676173205370e-07 1.155317129927384e-02
3.063490116706314e-14 5.644906628111747e-14 2.723815151982284e-10
3.932778040368464e-14 1.894207514522230e-14 2.621636671202155e-10
1.714427284867770e-07 -1.714427284864006e-07 8.826515333491577e-04
1.024645592287701e-06 -1.024645592274648e-06 1.159797416303062e-02
1.040045483947678e-13 7.833879392197970e-14 2.482610952466475e-10
1.347829185728938e-13 2.403864224765541e-14 2.296250600525269e-10
1.039910528481723e-07 -9.735572743828454e-08 8.827953397212850e-04
-3.794723803023457e-07 -2.298902112371430e-07 1.157764997778348e-02
1.182013765770791e-13 1.182013765770437e-13 1.881765571485274e-10
1.313480818409401e-13 3.431798455378518e-14 1.522761726113393e-10
5.330010134011516e-08 -5.226039697543261e-08 8.828127274259698e-04
-1.145387482676204e-06 -1.064379083374921e-07 1.156862983344088e-02
3.431798455380319e-14 1.313480818409224e-13 1.522761726113383e-10
3.427182328570961e-14 3.427182328570404e-14 1.101235582295368e-10
2.012639865690226e-07 -2.900477379373937e-07 8.810196452041864e-04
1.560931564738826e-06 -2.971447219709499e-06 1.161791578169896e-02
1.214101077590826e-07 -1.659808306499845e-07 8.821747698394405e-04
9.718625312604312e-08 -1.406068210966279e-06 1.159275910554187e-02
6.451625182119598e-08 -9.059020785937664e-08 8.825691487081560e-04
-6.808372033004449e-07 -5.436895653032552e-07 1.158282057512738e-02
7.557428960652101e-08 -3.689861325620954e-07 8.797448950968066e-04
6.610281403477566e-07 -4.352503814806287e-06 1.163196667202335e-02
4.820220733625094e-08 -2.124574277221189e-07 8.817766657037124e-04
1.168743308870581e-08 1.168743308764896e-08 8.829421164905027e-04
-4.097002700681010e-07 -4.097002700938690e-07 1.154389368454150e-02
2.662393370306545e-08 2.645037729323235e-08 8.828199440749352e-04
-2.247676173271569e-07 -1.110830333718616e-06 1.155317129927294e-02
5.226039697614073e-08 5.330010134069700e-08 8.828127274259936e-04
1.064379083419245e-07 -1.145387482662374e-06 1.156862983344122e-02
2.645037729354633e-08 2.662393370195599e-08 8.828199440749425e-04
-1.110830333704497e-06 -2.247676173381144e-07 1.155317129927333e-02
5.702218183649520e-08 5.702218183586751e-08 8.827759093173436e-04
-6.303674675087301e-07 -6.303674675276619e-07 1.156158432494568e-02
9.735572743840247e-08 1.039910528489847e-07 8.827953397212914e-04
2.298902112421833e-07 -3.794723802846735e-07 1.157764997778508e-02
5.330010134073894e-08 5.226039697596811e-08 8.828127274259917e-04
-1.145387482660109e-06 1.064379083363460e-07 1.156862983344117e-02
1.039910528498631e-07 9.735572743821859e-08 8.827953397212572e-04
-3.794723802594122e-07 2.298902112202335e-07 1.157764997778407e-02
1.714427284879294e-07 1.714427284865060e-07 8.826515333491578e-04
1.024645592317448e-06 1.024645592274968e-06 1.159797416303002e-02
6.451625182173213e-08 9.059020786125261e-08 8.825691487081850e-04
-6.808372032808248e-07 5.436895653587507e-07 1.158282057512750e-02
1.214101077604923e-07 1.659808306504117e-07 8.821747698394561e-04
9.718625317901980e-08 1.406068210973778e-06 1.159275910554207e-02
2.012639865697112e-07 2.900477379365026e-07 8.810196452041834e-04
1.560931564774245e-06 2.971447219691942e-06 1.161791578169886e-02
2.604841400805333e-08 1.181553327439140e-07 8.824500295549580e-04
-2.371093971587223e-07 8.424090677126062e-07 1.159151127877991e-02
4.820220733577438e-08 2.124574277222107e-07 8.817766657037433e-04
7.078990165408306e-08 2.224718103339173e-06 1.160259859233652e-02
7.557428960566395e-08 3.689861325609211e-07 8.797448950968261e-04
6.610281403237198e-07 4.352503814769195e-06 1.163196667202377e-02
7.078990166993862e-08 -2.224718103330631e-06 1.160259859233630e-02
2.604841400838086e-08 -1.181553327416298e-07 8.824500295549610e-04
-2.371093971514819e-07 -8.424090676517602e-07 1.159151127878037e-02
-1.394752411488503e-14 -1.394752411523484e-14 3.056506990848530e-10
-3.380871153277250e-07 -3.380871153269654e-07 8.770229102345950e-04
-3.603452609258825e-06 -3.603452609243832e-06 1.164316342884156e-02
-2.900477379384492e-07 2.012639865694439e-07 8.810196452041936e-04
-2.971447219759989e-06 1.560931564744749e-06 1.161791578169889e-02
-3.689861325628148e-07 7.557428960616807e-08 8.797448950968044e-04
-4.352503814839956e-06 6.610281403398362e-07 1.163196667202342e-02
-7.557428960609940e-08 -3.689861325624257e-07 8.797448950968179e-04
-6.610281403102038e-07 -4.352503814817011e-06 1.163196667202370e-02
-4.820220733659268e-08 -2.124574277229740e-07 8.817766657037286e-04
-7.078990166608885e-08 -2.224718103358689e-06 1.160259859233633e-02
-1.659808306495813e-07 1.214101077598577e-07 8.821747698394469e-04
-1.406068210963693e-06 9.718625315575516e-08 1.159275910554248e-02
-2.124574277214159e-07 4.820220733627745e-08 8.817766657037238e-04
-2.224718103331105e-06 7.078990168165782e-08 1.160259859233699e-02
9.059020786033547e-08 6.451625182155194e-08 8.825691487081385e-04
5.436895653077757e-07 -6.808372032844131e-07 1.158282057512687e-02
1.181553327430992e-07 2.604841400885379e-08 8.824500295549480e-04
8.424090676775968e-07 -2.371093971431665e-07 1.159151127877969e-02
-3.689861325628428e-07 -7.557428960626354e-08 8.797448950968071e-04
-4.352503814834787e-06 -6.610281403297817e-07 1.163196667202363e-02
-2.900477379384477e-07 -2.012639865694812e-07 8.810196452042120e-04
-2.971447219747020e-06 -1.560931564756221e-06 1.161791578169945e-02
1.659808306497766e-07 1.214101077597919e-07 8.821747698394204e-04
1.406068210958921e-06 9.718625315451046e-08 1.159275910554178e-02
2.124574277209956e-07 4.820220733589628e-08 8.817766657037259e-04
2.224718103313571e-06 7.078990166570778e-08 1.160259859233640e-02
-9.059020785932659e-08 6.451625182162212e-08 8.825691487081638e-04
-5.436895652969600e-07 -6.808372032833922e-07 1.158282057512715e-02
-1.181553327418789e-07 2.604841400870735e-08 8.824500295549307e-04
-8.424090676534888e-07 -2.371093971376556e-07 1.159151127877977e-02
2.900477379378928e-07 2.012639865688323e-07 8.810196452042082e-04
2.971447219733608e-06 1.560931564741194e-06 1.161791578169892e-02
3.689861325617016e-07 7.557428960528462e-08 8.797448950968243e-04
4.352503814806777e-06 6.610281403178612e-07 1.163196667202344e-02
-2.604841400988881e-08 -1.181553327421908e-07 8.824500295549348e-04
-1.710589826776822e-14 3.398476964635702e-14 2.806681606759178e-10
-1.894207514550956e-14 3.932778040383209e-14 2.621636671202240e-10
-2.403864224783995e-14 1.347829185730780e-13 2.296250600526717e-10
3.380871153277338e-07 3.380871153264658e-07 8.770229102346216e-04
3.603452609267140e-06 3.603452609235639e-06 1.164316342884158e-02
4.301426428154449e-07 1.242119482186918e-07 8.738284328970282e-04
5.067425826060530e-06 1.498356905108986e-06 1.166190603484167e-02
-4.542921413761868e-14 2.829173981303784e-14 2.866975060442637e-10
-5.644906628121867e-14 3.063490116716062e-14 2.723815151982226e-10
-7.833879392217926e-14 1.040045483948553e-13 2.482610952466466e-10
-4.568669972587593e-14 1.911432580262362e-14 2.955025612873589e-10
1.242119482192059e-07 4.301426428142824e-07 8.738284328970602e-04
1.498356905121053e-06 5.067425826027196e-06 1.166190603484207e-02
1.563069500538055e-07 1.563069500531013e-07 8.690464034110079e-04
2.103619269209612e-06 2.103619269200105e-06 1.168472048628993e-02
-4.958072339299636e-14 1.796515193831885e-14 2.877326574815138e-10
-5.750672657778673e-14 5.750672657789959e-14 2.776845586480191e-10
-3.095055604696677e-14 1.721509105571834e-14 3.017399234131788e-10
-2.823659305980180e-14 2.823659306004563e-14 2.958852328479612e-10
-1.796515193812742e-14 4.958072339306325e-14 2.877326574816696e-10
-1.394752411481699e-14 1.394752411510840e-14 3.056506990847603e-10
-1.721509105556888e-14 3.095055604714595e-14 3.017399234131640e-10
-1.911432580250474e-14 4.568669972595959e-14 2.955025612873603e-10
2.371093971154311e-07 -8.424090676711896e-07 1.159151127877981e-02
-2.012639865704998e-07 -2.900477379382591e-07 8.810196452041846e-04
-1.560931564764893e-06 -2.971447219736615e-06 1.161791578169854e-02
-2.124574277217309e-07 -4.820220733676495e-08 8.817766657037416e-04
-2.224718103333594e-06 -7.078990168339488e-08 1.160259859233683e-02
-1.659808306501478e-07 -1.214101077597551e-07 8.821747698394672e-04
-1.406068210982610e-06 -9.718625314903948e-08 1.159275910554199e-02
-3.431798455384850e-14 1.313480818409359e-13 1.522761726113384e-10
-3.427182328574527e-14 3.427182328571715e-14 1.101235582295767e-10
-1.214101077604250e-07 -1.659808306512072e-07 8.821747698394364e-04
-9.718625315550113e-08 -1.406068211008494e-06 1.159275910554205e-02
-1.182013765771246e-13 1.182013765770958e-13 1.881765571484674e-10
-1.313480818410270e-13 3.431798455382172e-14 1.522761726113822e-10
-6.451625182208080e-08 -9.059020786014829e-08 8.825691487081477e-04
6.808372032829115e-07 -5.436895653241807e-07 1.158282057512667e-02
-1.040045483948164e-13 7.833879392207198e-14 2.482610952465733e-10
-1.347829185731589e-13 2.403864224773033e-14 2.296250600525979e-10
-1.181553327424583e-07 -2.604841400960590e-08 8.824500295549656e-04
-8.424090676610287e-07 2.371093971137559e-07 1.159151127878011e-02
-3.063490116695840e-14 5.644906628102453e-14 2.723815151982241e-10
-3.932778040358271e-14 1.894207514527639e-14 2.621636671201513e-10
-9.059020785980727e-08 -6.451625182163884e-08 8.825691487082032e-04
-5.436895653259526e-07 6.808372032873411e-07 1.158282057512857e-02
-2.829173981274982e-14 4.542921413750304e-14 2.866975060442641e-10
-3.398476964597547e-14 1.710589826753801e-14 2.806681606759241e-10
-1.714427284876966e-07 -1.714427284874171e-07 8.826515333491566e-04
-1.024645592312742e-06 -1.024645592289780e-06 1.159797416302922e-02
-1.039910528484743e-07 -9.735572743884026e-08 8.827953397212490e-04
3.794723802711138e-07 -2.298902112640696e-07 1.157764997778352e-02
-5.330010134026805e-08 -5.226039697595415e-08 8.828127274259742e-04
1.145387482661930e-06 -1.064379083427259e-07 1.156862983344125e-02
-9.735572743807013e-08 -1.039910528483337e-07 8.827953397212797e-04
-2.298902112498769e-07 3.794723802849900e-07 1.157764997778454e-02
-5.702218183557502e-08 -5.702218183647192e-08 8.827759093172946e-04
3.398476964626589e-14 -1.710589826774174e-14 2.806681606759308e-10
2.829173981300344e-14 -4.542921413761556e-14 2.866975060442776e-10
6.303674675073837e-07 6.303674674996455e-07 1.156158432494555e-02
-3.427182328571510e-14 -3.427182328573050e-14 1.101235582294931e-10
3.932778040377215e-14 -1.894207514548694e-14 2.621636671203802e-10
3.063490116708548e-14 -5.644906628108331e-14 2.723815151982235e-10
-3.431798455383831e-14 -1.313480818409066e-13 1.522761726113847e-10
-2.645037729285799e-08 -2.662393370282570e-08 8.828199440749295e-04
1.347829185729715e-13 -2.403864224779670e-14 2.296250600526019e-10
1.040045483947991e-13 -7.833879392202235e-14 2.482610952466466e-10
1.110830333704534e-06 2.247676173253003e-07 1.155317129927314e-02
-1.313480818409731e-13 -3.431798455384166e-14 1.522761726113335e-10
1.313480818409372e-13 -3.431798455385468e-14 1.522761726113386e-10
1.182013765770365e-13 -1.182013765770011e-13 1.881765571484644e-10
-1.182013765770634e-13 -1.182013765769859e-13 1.881765571484051e-10
-5.226039697517091e-08 -5.330010133992367e-08 8.828127274260236e-04
3.427182328572827e-14 -3.427182328574723e-14 1.101235582295347e-10
3.431798455384881e-14 -1.313480818409401e-13 1.522761726113863e-10
-1.064379083565071e-07 1.145387482672363e-06 1.156862983344267e-02
-1.347829185731500e-13 -2.403864224774869e-14 2.296250600526044e-10
-1.040045483948496e-13 -7.833879392203752e-14 2.482610952466396e-10
-2.604841401068048e-08 1.181553327436692e-07 8.824500295549264e-04
2.371093971022780e-07 8.424090677067967e-07 1.159151127877962e-02
-4.820220733813832e-08 2.124574277226255e-07 8.817766657037413e-04
-7.078990170460569e-08 2.224718103356209e-06 1.160259859233667e-02
1.911432580273064e-14 -4.568669972578079e-14 2.955025612873661e-10
1.721509105583944e-14 -3.095055604695905e-14 3.017399234132640e-10
1.394752411528170e-14 -1.394752411506991e-14 3.056506990847702e-10
1.796515193832990e-14 -4.958072339285164e-14 2.877326574815147e-10
2.823659305996463e-14 -2.823659305981054e-14 2.958852328478753e-10
3.095055604710683e-14 -1.721509105565209e-14 3.017399234132595e-10
5.750672657782236e-14 -5.750672657772079e-14 2.776845586480242e-10
4.958072339291146e-14 -1.796515193819233e-14 2.877326574815038e-10
4.568669972582172e-14 -1.911432580263608e-14 2.955025612874463e-10
7.833879392200074e-14 -1.040045483947099e-13 2.482610952465778e-10
5.644906628093676e-14 -3.063490116710249e-14 2.723815151983813e-10
4.542921413728546e-14 -2.829173981283910e-14 2.866975060441020e-10
2.403864224776042e-14 -1.347829185730402e-13 2.296250600525286e-10
1.894207514521316e-14 -3.932778040387722e-14 2.621636671202229e-10
1.710589826743092e-14 -3.398476964616369e-14 2.806681606759263e-10
-7.557428960684458e-08 3.689861325614860e-07 8.797448950968419e-04
-6.610281403363223e-07 4.352503814779059e-06 1.163196667202370e-02
-6.451625182247571e-08 9.059020786080253e-08 8.825691487081626e-04
6.808372032754288e-07 5.436895653360800e-07 1.158282057512734e-02
-1.214101077611724e-07 1.659808306510117e-07 8.821747698394574e-04
-9.718625317692698e-08 1.406068211004018e-06 1.159275910554169e-02
-2.012639865706261e-07 2.900477379378027e-07 8.810196452042152e-04
-1.560931564779958e-06 2.971447219722314e-06 1.161791578169873e-02
-5.330010134052324e-08 5.226039697597945e-08 8.828127274259941e-04
1.145387482660821e-06 1.064379083565709e-07 1.156862983344208e-02
-1.039910528486833e-07 9.735572743867776e-08 8.827953397212686e-04
3.794723802707828e-07 2.298902112601339e-07 1.157764997778396e-02
-1.714427284875712e-07 1.714427284871856e-07 8.826515333491574e-04
-1.024645592327161e-06 1.024645592286069e-06 1.159797416302975e-02
-2.645037729288690e-08 2.662393370267544e-08 8.828199440749253e-04
1.110830333706426e-06 -2.247676173333079e-07 1.155317129927317e-02
-5.702218183569625e-08 5.702218183665076e-08 8.827759093173126e-04
6.303674675087588e-07 -6.303674675004271e-07 1.156158432494539e-02
-9.735572743789480e-08 1.039910528486065e-07 8.827953397212770e-04
-2.298902112426219e-07 -3.794723802923761e-07 1.157764997778451e-02
-1.168743308651748e-08 1.168743308796601e-08 8.829421164904902e-04
4.097002701229010e-07 -4.097002700893693e-07 1.154389368454132e-02
-2.662393370157861e-08 2.645037729363245e-08 8.828199440749442e-04
1.181553327433374e-07 -2.604841400972588e-08 8.824500295549595e-04
8.424090676838050e-07 2.371093971252067e-07 1.159151127878002e-02
9.059020786066547e-08 -6.451625182183499e-08 8.825691487081826e-04
5.436895653343237e-07 6.808372032881451e-07 1.158282057512779e-02
2.247676173553403e-07 -1.110830333701423e-06 1.155317129927301e-02
-5.226039697494915e-08 5.330010134060122e-08 8.828127274259807e-04
-1.064379083340173e-07 -1.145387482663511e-06 1.156862983344162e-02
-1.563069500533171e-07 -1.563069500541737e-07 8.690464034109783e-04
2.124574277208881e-07 -4.820220733693470e-08 8.817766657037287e-04
2.224718103319005e-06 -7.078990167096943e-08 1.160259859233646e-02
1.659808306507773e-07 -1.214101077596081e-07 8.821747698394520e-04
1.406068210974284e-06 -9.718625314051537e-08 1.159275910554174e-02
-2.103619269185633e-06 -2.103619269222168e-06 1.168472048628965e-02
-3.932778040361209e-14 -1.894207514533062e-14 2.621636671202332e-10
-3.063490116706762e-14 -5.644906628099923e-14 2.723815151982276e-10
-1.242119482194012e-07 -4.301426428140832e-07 8.738284328970341e-04
3.689861325614518e-07 -7.557428960630848e-08 8.797448950967775e-04
4.352503814792221e-06 -6.610281403273438e-07 1.163196667202358e-02
2.900477379373546e-07 -2.012639865685607e-07 8.810196452041976e-04
2.971447219713110e-06 -1.560931564729432e-06 1.161791578169911e-02
-1.498356905109822e-06 -5.067425826025406e-06 1.166190603484175e-02
-3.398476964598294e-14 -1.710589826767554e-14 2.806681606758465e-10
-2.829173981285509e-14 -4.542921413756509e-14 2.866975060442768e-10
-2.662393370206906e-08 -2.645037729343079e-08 8.828199440749362e-04
4.301426428153248e-07 -1.242119482200973e-07 8.738284328970407e-04
5.067425826059614e-06 -1.498356905147918e-06 1.166190603484195e-02
3.380871153271060e-07 -3.380871153264321e-07 8.770229102345939e-04
3.603452609254570e-06 -3.603452609235039e-06 1.164316342884181e-02
2.247676173503576e-07 1.110830333697233e-06 1.155317129927284e-02
-1.168743308688683e-08 -1.168743308798817e-08 8.829421164904918e-04
4.097002701142362e-07 4.097002700980430e-07 1.154389368454141e-02
-4.301426428151682e-07 -1.242119482201470e-07 8.738284328970253e-04
1.563069500538447e-07 -1.563069500541601e-07 8.690464034109897e-04
2.103619269225331e-06 -2.103619269225991e-06 1.168472048628990e-02
1.242119482199364e-07 -4.301426428142904e-07 8.738284328970285e-04
1.498356905147542e-06 -5.067425826033245e-06 1.166190603484179e-02
-5.067425826052927e-06 -1.498356905141677e-06 1.166190603484157e-02
-2.403864224778490e-14 -1.347829185730476e-13 2.296250600524568e-10
-1.894207514540949e-14 -3.932778040396965e-14 2.621636671203068e-10
-1.710589826772052e-14 -3.398476964620431e-14 2.806681606760039e-10
-7.833879392221963e-14 -1.040045483949022e-13 2.482610952467128e-10
-5.644906628111809e-14 -3.063490116723718e-14 2.723815151982210e-10
-4.542921413755316e-14 -2.829173981291985e-14 2.866975060441760e-10
-5.750672657778998e-14 -5.750672657791588e-14 2.776845586480138e-10
-4.958072339290834e-14 -1.796515193835845e-14 2.877326574815900e-10
-4.568669972584438e-14 -1.911432580268091e-14 2.955025612873499e-10
-1.242119482196111e-07 4.301426428145794e-07 8.738284328970634e-04
-1.498356905116523e-06 5.067425826041385e-06 1.166190603484213e-02
-1.563069500536624e-07 1.563069500532256e-07 8.690464034110243e-04
-2.103619269192990e-06 2.103619269205890e-06 1.168472048628983e-02
-1.796515193820764e-14 -4.958072339295247e-14 2.877326574815949e-10
-2.823659305974943e-14 -2.823659305998289e-14 2.958852328479578e-10
-3.095055604688901e-14 -1.721509105588237e-14 3.017399234130891e-10
-1.911432580261260e-14 -4.568669972577717e-14 2.955025612873691e-10
-3.380871153279971e-07 3.380871153271885e-07 8.770229102346114e-04
-3.603452609265954e-06 3.603452609246024e-06 1.164316342884193e-02
-4.301426428155369e-07 1.242119482198951e-07 8.738284328970369e-04
-5.067425826059736e-06 1.498356905135126e-06 1.166190603484180e-02
-1.721509105564198e-14 -3.095055604701341e-14 3.017399234131855e-10