<?xml version="1.0" ?> 
<!-- 
# vtk DataFile Version 3.0
-->
<VTKFile type="UnstructuredGrid" version="0.1" compressor="vtkZLibDataCompressor" byte_order="LittleEndian">
  <UnstructuredGrid>
    <FieldData>
      <DataArray type="Float64" Name="TIME" NumberOfTuples="1" format="ascii">
1.250000000000001e-01 
      </DataArray>
    </FieldData>

    <Piece NumberOfPoints="420" NumberOfCells="0" >
      <Points>
        <DataArray type="Float64" NumberOfComponents="3" format="ascii">
-4.500666002978348e-01 -4.500666002978349e-01 1.045433002197563e+00
-4.498832984040444e-01 -3.500433261826912e-01 1.045735632659505e+00
-4.496624891834516e-01 -2.500236616147149e-01 1.046039092167545e+00
-4.493952111560994e-01 -1.500246376892154e-01 1.046343945555329e+00
-4.491635328557875e-01 -5.006391688568036e-02 1.046640830808677e+00
-4.491635328557876e-01 5.006391688568045e-02 1.046640830808677e+00
-4.493952111560993e-01 1.500246376892155e-01 1.046343945555329e+00
-4.496624891834516e-01 2.500236616147149e-01 1.046039092167546e+00
-4.498832984040445e-01 3.500433261826912e-01 1.045735632659505e+00
-4.500666002978348e-01 4.500666002978346e-01 1.045433002197563e+00
-3.500433261826914e-01 -4.498832984040445e-01 1.045735632659505e+00
-3.497909293457907e-01 -3.497909293457908e-01 1.045560456888792e+00
-3.495308430627836e-01 -2.497132560458164e-01 1.045417163164809e+00
-3.493126173402936e-01 -1.497131814915992e-01 1.045351934103840e+00
-3.490832290737848e-01 -4.983473658156634e-02 1.045228855600371e+00
-3.490832290737848e-01 4.983473658156641e-02 1.045228855600371e+00
-3.493126173402936e-01 1.497131814915992e-01 1.045351934103840e+00
-3.495308430627836e-01 2.497132560458165e-01 1.045417163164809e+00
-3.497909293457906e-01 3.497909293457908e-01 1.045560456888792e+00
-3.500433261826912e-01 4.498832984040444e-01 1.045735632659505e+00
-2.500236616147148e-01 -4.496624891834515e-01 1.046039092167546e+00
-2.497132560458165e-01 -3.495308430627836e-01 1.045417163164809e+00
-2.497517567925947e-01 -2.497517567925947e-01 1.045073440451306e+00
-2.496722958643390e-01 -1.497467952680540e-01 1.045308489773720e+00
-2.495239911818843e-01 -4.975969631931808e-02 1.045010897290517e+00
-2.495239911818843e-01 4.975969631931805e-02 1.045010897290517e+00
-2.496722958643389e-01 1.497467952680542e-01 1.045308489773720e+00
-2.497517567925948e-01 2.497517567925948e-01 1.045073440451306e+00
-2.497132560458165e-01 3.495308430627835e-01 1.045417163164809e+00
-2.500236616147149e-01 4.496624891834516e-01 1.046039092167546e+00
-1.500246376892154e-01 -4.493952111560994e-01 1.046343945555329e+00
-1.497131814915991e-01 -3.493126173402936e-01 1.045351934103840e+00
-1.497467952680541e-01 -2.496722958643389e-01 1.045308489773720e+00
-1.497467952680540e-01 2.496722958643390e-01 1.045308489773720e+00
-1.497131814915992e-01 3.493126173402936e-01 1.045351934103840e+00
-1.500246376892154e-01 4.493952111560994e-01 1.046343945555329e+00
-5.006391688568042e-02 -4.491635328557875e-01 1.046640830808677e+00
-4.983473658156634e-02 -3.490832290737847e-01 1.045228855600371e+00
-4.975969631931802e-02 -2.495239911818843e-01 1.045010897290517e+00
-4.975969631931800e-02 2.495239911818843e-01 1.045010897290517e+00
-4.983473658156630e-02 3.490832290737847e-01 1.045228855600371e+00
-5.006391688568041e-02 4.491635328557876e-01 1.046640830808677e+00
5.006391688568043e-02 -4.491635328557876e-01 1.046640830808677e+00
4.983473658156646e-02 -3.490832290737848e-01 1.045228855600371e+00
4.975969631931817e-02 -2.495239911818843e-01 1.045010897290517e+00
4.975969631931811e-02 2.495239911818843e-01 1.045010897290517e+00
4.983473658156639e-02 3.490832290737848e-01 1.045228855600371e+00
5.006391688568045e-02 4.491635328557876e-01 1.046640830808677e+00
1.500246376892156e-01 -4.493952111560993e-01 1.046343945555329e+00
1.497131814915993e-01 -3.493126173402936e-01 1.045351934103840e+00
1.497467952680542e-01 -2.496722958643390e-01 1.045308489773720e+00
1.497467952680540e-01 2.496722958643389e-01 1.045308489773720e+00
1.497131814915992e-01 3.493126173402936e-01 1.045351934103840e+00
1.500246376892156e-01 4.493952111560993e-01 1.046343945555329e+00
2.500236616147150e-01 -4.496624891834515e-01 1.046039092167546e+00
2.497132560458165e-01 -3.495308430627835e-01 1.045417163164809e+00
2.497517567925948e-01 -2.497517567925947e-01 1.045073440451306e+00
2.496722958643390e-01 -1.497467952680541e-01 1.045308489773720e+00
2.495239911818843e-01 -4.975969631931805e-02 1.045010897290517e+00
2.495239911818843e-01 4.975969631931810e-02 1.045010897290517e+00
2.496722958643390e-01 1.497467952680541e-01 1.045308489773720e+00
2.497517567925948e-01 2.497517567925948e-01 1.045073440451306e+00
2.497132560458165e-01 3.495308430627835e-01 1.045417163164809e+00
2.500236616147150e-01 4.496624891834516e-01 1.046039092167546e+00
3.500433261826912e-01 -4.498832984040444e-01 1.045735632659505e+00
3.497909293457908e-01 -3.497909293457907e-01 1.045560456888792e+00
3.495308430627835e-01 -2.497132560458165e-01 1.045417163164809e+00
3.493126173402936e-01 -1.497131814915992e-01 1.045351934103840e+00
3.490832290737848e-01 -4.983473658156632e-02 1.045228855600371e+00
3.490832290737847e-01 4.983473658156643e-02 1.045228855600371e+00
3.493126173402936e-01 1.497131814915992e-01 1.045351934103840e+00
3.495308430627837e-01 2.497132560458164e-01 1.045417163164809e+00
3.497909293457908e-01 3.497909293457908e-01 1.045560456888792e+00
3.500433261826912e-01 4.498832984040445e-01 1.045735632659505e+00
4.500666002978348e-01 -4.500666002978347e-01 1.045433002197563e+00
4.498832984040445e-01 -3.500433261826912e-01 1.045735632659505e+00
4.496624891834516e-01 -2.500236616147149e-01 1.046039092167546e+00
4.493952111560994e-01 -1.500246376892154e-01 1.046343945555329e+00
4.491635328557876e-01 -5.006391688568040e-02 1.046640830808677e+00
4.491635328557876e-01 5.006391688568048e-02 1.046640830808677e+00
4.493952111560993e-01 1.500246376892155e-01 1.046343945555329e+00
4.496624891834516e-01 2.500236616147148e-01 1.046039092167546e+00
4.498832984040445e-01 3.500433261826912e-01 1.045735632659505e+00
4.500666002978348e-01 4.500666002978347e-01 1.045433002197563e+00
-4.499701292401960e-01 -4.499701292401961e-01 1.144489574104680e+00
-4.499437584540837e-01 -4.499437584540837e-01 1.243260873808678e+00
-4.499422637925735e-01 -4.499422637925735e-01 1.341929022675823e+00
-4.499507967353866e-01 -4.499507967353867e-01 1.440622064364582e+00
-4.498976686386162e-01 -3.499245687116013e-01 1.144586346048982e+00
-4.499059812050541e-01 -3.498648354751021e-01 1.243282973698103e+00
-4.499117963909734e-01 -3.498586892196344e-01 1.341923687128372e+00
-4.499272809359650e-01 -3.498783065236251e-01 1.440603281426030e+00
-4.497702696191932e-01 -2.498851092420630e-01 1.144712356239552e+00
-4.498095716414774e-01 -2.498070208969088e-01 1.243322838793510e+00
-4.498162647881045e-01 -2.497912432296656e-01 1.341922249051514e+00
-4.498544683951611e-01 -2.498190018811088e-01 1.440576894175726e+00
-4.495609653870204e-01 -1.498852344808264e-01 1.144854825154468e+00
-4.495979934860768e-01 -1.498062597054303e-01 1.243379103851014e+00
-4.495922493154013e-01 -1.497885544032913e-01 1.341923812921032e+00
-4.496806900774896e-01 -1.498175762141457e-01 1.440534795527682e+00
-4.494102968173541e-01 -4.995980750093777e-02 1.144962856658797e+00
-4.494501088478613e-01 -4.992606714343779e-02 1.243416680175784e+00
-4.494343723305944e-01 -4.991951650512247e-02 1.341923592614890e+00
-4.495582636674021e-01 -4.993029606158327e-02 1.440505694236057e+00
-4.494102968173541e-01 4.995980750093791e-02 1.144962856658797e+00
-4.494501088478614e-01 4.992606714343780e-02 1.243416680175784e+00
-4.494343723305943e-01 4.991951650512248e-02 1.341923592614890e+00
-4.495582636674022e-01 4.993029606158323e-02 1.440505694236057e+00
-4.495609653870204e-01 1.498852344808264e-01 1.144854825154468e+00
-4.495979934860768e-01 1.498062597054303e-01 1.243379103851014e+00
-4.495922493154013e-01 1.497885544032913e-01 1.341923812921032e+00
-4.496806900774896e-01 1.498175762141457e-01 1.440534795527682e+00
-4.497702696191933e-01 2.498851092420630e-01 1.144712356239552e+00
-4.498095716414775e-01 2.498070208969087e-01 1.243322838793510e+00
-4.498162647881045e-01 2.497912432296655e-01 1.341922249051514e+00
-4.498544683951612e-01 2.498190018811088e-01 1.440576894175726e+00
-4.498976686386162e-01 3.499245687116013e-01 1.144586346048982e+00
-4.499059812050541e-01 3.498648354751021e-01 1.243282973698103e+00
-4.499117963909733e-01 3.498586892196345e-01 1.341923687128372e+00
-4.499272809359650e-01 3.498783065236251e-01 1.440603281426030e+00
-4.499701292401960e-01 4.499701292401961e-01 1.144489574104680e+00
-4.499437584540837e-01 4.499437584540837e-01 1.243260873808677e+00
-4.499422637925735e-01 4.499422637925735e-01 1.341929022675823e+00
-4.499507967353867e-01 4.499507967353869e-01 1.440622064364582e+00
-3.499245687116013e-01 -4.498976686386162e-01 1.144586346048982e+00
-3.498648354751021e-01 -4.499059812050540e-01 1.243282973698103e+00
-3.498586892196344e-01 -4.499117963909733e-01 1.341923687128372e+00
-3.498783065236252e-01 -4.499272809359650e-01 1.440603281426030e+00
-3.497511796086890e-01 -3.497511796086890e-01 1.144545550693527e+00
-3.497517227663424e-01 -3.497517227663424e-01 1.243290034854224e+00
-3.497584097219147e-01 -3.497584097219149e-01 1.341924466087554e+00
-3.498061425827841e-01 -3.498061425827841e-01 1.440571845798980e+00
-3.495685019579897e-01 -2.495961754554785e-01 1.144562747729195e+00
-3.496456680836377e-01 -2.495197636252486e-01 1.243346145304720e+00
-3.497269887348172e-01 -2.495200276425988e-01 1.341934775145462e+00
-3.498326279687458e-01 -2.496304022207568e-01 1.440525015319631e+00
-3.493548416298358e-01 -1.495840639787216e-01 1.144693370312997e+00
-3.494422860378740e-01 -1.494847053206280e-01 1.243484047384412e+00
-3.495908008560044e-01 -1.494732337772266e-01 1.341954807133542e+00
-3.497744883195990e-01 -1.495899726936595e-01 1.440433561074392e+00
-3.491570548967886e-01 -4.980094182214894e-02 1.144769376086659e+00
[...]
  <PointData>
        <DataArray type="Float64" Name="acceleration" NumberOfComponents="3" format="ascii">
5.017481544219640e-02 5.017481544189036e-02 -2.685778551712397e+00
1.461701341784507e-01 1.872716128869167e-01 -2.523885107097346e+00
2.551729164630823e-01 2.738648444021296e-01 -2.362243566984592e+00
3.759653766292919e-01 2.231337082735861e-01 -2.199693301758101e+00
4.903085949094148e-01 7.127534632306290e-02 -2.038866811490269e+00
4.903085949095836e-01 -7.127534632304140e-02 -2.038866811490346e+00
3.759653766293086e-01 -2.231337082736606e-01 -2.199693301758312e+00
2.551729164629369e-01 -2.738648444020569e-01 -2.362243566984798e+00
1.461701341782428e-01 -1.872716128866458e-01 -2.523885107097648e+00
5.017481544213021e-02 -5.017481544217567e-02 -2.685778551712719e+00
1.872716128869262e-01 1.461701341782652e-01 -2.523885107097477e+00
3.303816821557486e-01 3.303816821556175e-01 -2.597208536070833e+00
4.536689321221334e-01 4.052536872051059e-01 -2.711000601630304e+00
6.323817109915455e-01 3.995130155791766e-01 -2.807150034907306e+00
8.377095342427556e-01 1.885939691988416e-01 -2.891179846530626e+00
8.377095342427452e-01 -1.885939691986318e-01 -2.891179846530886e+00
6.323817109915238e-01 -3.995130155794887e-01 -2.807150034907670e+00
4.536689321220635e-01 -4.052536872051212e-01 -2.711000601630509e+00
3.303816821555633e-01 -3.303816821554522e-01 -2.597208536070919e+00
1.872716128867834e-01 -1.461701341783161e-01 -2.523885107097547e+00
2.738648444021534e-01 2.551729164630260e-01 -2.362243566984716e+00
4.052536872052533e-01 4.536689321220718e-01 -2.711000601630430e+00
6.693590510957255e-01 6.693590510955727e-01 -3.003428102532848e+00
1.342943660254142e+00 6.983686374041146e-01 -2.905642653075216e+00
1.606328850406417e+00 2.575231834145998e-01 -3.057016472912823e+00
1.606328850406258e+00 -2.575231834145724e-01 -3.057016472912991e+00
1.342943660254073e+00 -6.983686374042707e-01 -2.905642653075544e+00
6.693590510957375e-01 -6.693590510956784e-01 -3.003428102533002e+00
4.052536872051737e-01 -4.536689321219226e-01 -2.711000601630435e+00
2.738648444021780e-01 -2.551729164629659e-01 -2.362243566984713e+00
2.231337082735448e-01 3.759653766293237e-01 -2.199693301758211e+00
3.995130155791367e-01 6.323817109915055e-01 -2.807150034907527e+00
6.983686374041244e-01 1.342943660253971e+00 -2.905642653075355e+00
6.983686374042413e-01 -1.342943660254129e+00 -2.905642653075383e+00
3.995130155792596e-01 -6.323817109913618e-01 -2.807150034907446e+00
2.231337082736263e-01 -3.759653766292787e-01 -2.199693301758218e+00
7.127534632291987e-02 4.903085949092661e-01 -2.038866811490218e+00
1.885939691984652e-01 8.377095342427769e-01 -2.891179846530592e+00
2.575231834145077e-01 1.606328850406445e+00 -3.057016472912852e+00
2.575231834146031e-01 -1.606328850406468e+00 -3.057016472912855e+00
1.885939691987025e-01 -8.377095342426171e-01 -2.891179846530634e+00
7.127534632304039e-02 -4.903085949094034e-01 -2.038866811490319e+00
-7.127534632304282e-02 4.903085949092356e-01 -2.038866811490115e+00
-1.885939691986434e-01 8.377095342427630e-01 -2.891179846530498e+00
-2.575231834146873e-01 1.606328850406483e+00 -3.057016472912824e+00
-2.575231834146502e-01 -1.606328850406379e+00 -3.057016472912911e+00
-1.885939691985848e-01 -8.377095342425578e-01 -2.891179846530799e+00
-7.127534632300953e-02 -4.903085949095084e-01 -2.038866811490404e+00
-2.231337082736471e-01 3.759653766292337e-01 -2.199693301758124e+00
-3.995130155792161e-01 6.323817109914291e-01 -2.807150034907506e+00
-6.983686374043003e-01 1.342943660254021e+00 -2.905642653075415e+00
-6.983686374043203e-01 -1.342943660253969e+00 -2.905642653075398e+00
-3.995130155793190e-01 -6.323817109912677e-01 -2.807150034907689e+00
-2.231337082737514e-01 -3.759653766294739e-01 -2.199693301758396e+00
-2.738648444021124e-01 2.551729164630467e-01 -2.362243566984619e+00
-4.052536872051609e-01 4.536689321219997e-01 -2.711000601630540e+00
-6.693590510955714e-01 6.693590510955563e-01 -3.003428102533018e+00
-1.342943660254017e+00 6.983686374042390e-01 -2.905642653075279e+00
-1.606328850406476e+00 2.575231834146792e-01 -3.057016472912813e+00
-1.606328850406379e+00 -2.575231834145505e-01 -3.057016472912968e+00
-1.342943660254012e+00 -6.983686374043391e-01 -2.905642653075423e+00
-6.693590510955565e-01 -6.693590510955068e-01 -3.003428102533007e+00
-4.052536872050567e-01 -4.536689321219156e-01 -2.711000601630666e+00
-2.738648444020875e-01 -2.551729164631981e-01 -2.362243566984825e+00
-1.872716128868624e-01 1.461701341782528e-01 -2.523885107097332e+00
-3.303816821556835e-01 3.303816821555987e-01 -2.597208536070774e+00
-4.536689321220114e-01 4.052536872052120e-01 -2.711000601630431e+00
-6.323817109913440e-01 3.995130155792092e-01 -2.807150034907473e+00
-8.377095342426212e-01 1.885939691986968e-01 -2.891179846530684e+00
-8.377095342426786e-01 -1.885939691985466e-01 -2.891179846530851e+00
-6.323817109913821e-01 -3.995130155793548e-01 -2.807150034907581e+00
-4.536689321219212e-01 -4.052536872049788e-01 -2.711000601630494e+00
-3.303816821555311e-01 -3.303816821555143e-01 -2.597208536071084e+00
-1.872716128868153e-01 -1.461701341785509e-01 -2.523885107097692e+00
-5.017481544210859e-02 5.017481544196054e-02 -2.685778551712424e+00
-1.461701341783742e-01 1.872716128868726e-01 -2.523885107097348e+00
-2.551729164630331e-01 2.738648444022124e-01 -2.362243566984619e+00
-3.759653766293755e-01 2.231337082736666e-01 -2.199693301758233e+00
-4.903085949093920e-01 7.127534632300347e-02 -2.038866811490378e+00
-4.903085949095349e-01 -7.127534632300044e-02 -2.038866811490456e+00
-3.759653766294152e-01 -2.231337082736267e-01 -2.199693301758398e+00
-2.551729164631220e-01 -2.738648444020046e-01 -2.362243566984867e+00
-1.461701341784438e-01 -1.872716128867731e-01 -2.523885107097840e+00
-5.017481544206966e-02 -5.017481544229913e-02 -2.685778551712873e+00
1.146447153632050e-01 1.146447153630831e-01 -1.712274230783867e+00
1.014532555244739e-01 1.014532555243875e-01 -5.708683560014105e-01
6.713893340072476e-02 6.713893340068984e-02 3.220429959632957e-01
3.921156209945798e-02 3.921156209943485e-02 8.051643925015454e-01
1.836657482027073e-01 3.136467847603509e-01 -1.687648476144971e+00
1.437510142399191e-01 2.677103653088563e-01 -6.298973906589741e-01
8.897218195631565e-02 1.759204672092742e-01 2.659894614135940e-01
3.905907448859029e-02 9.914299078264126e-02 7.661882413556976e-01
2.633404265961356e-01 4.205959830562062e-01 -1.676964795511198e+00
2.040670822680445e-01 3.604220540127171e-01 -7.216368067998427e-01
1.490192589051434e-01 2.484568640415170e-01 1.769718098345313e-01
7.841194524962190e-02 1.458374383187073e-01 6.992232554448555e-01
3.615621817403395e-01 3.594692114419445e-01 -1.658422657722081e+00
3.041088024812721e-01 3.174586437266454e-01 -8.052667174137605e-01
2.710646735910540e-01 2.245812676798153e-01 8.797420026736097e-02
1.786935403368361e-01 1.345793167082140e-01 6.216183556365951e-01
4.501868423217769e-01 1.381554072525933e-01 -1.629740031953582e+00
3.969809790021086e-01 1.228556111679465e-01 -8.599453640587833e-01
3.815964091237050e-01 8.448891903567113e-02 2.887606088702023e-02
2.661558463761470e-01 4.841081409963438e-02 5.693010896489163e-01
4.501868423218476e-01 -1.381554072527110e-01 -1.629740031953611e+00
3.969809790020949e-01 -1.228556111680155e-01 -8.599453640587722e-01
3.815964091236496e-01 -8.448891903576378e-02 2.887606088705290e-02
2.661558463761387e-01 -4.841081409966461e-02 5.693010896489629e-01
3.615621817402757e-01 -3.594692114420063e-01 -1.658422657722082e+00
3.041088024812154e-01 -3.174586437265305e-01 -8.052667174136220e-01
2.710646735909361e-01 -2.245812676796033e-01 8.797420026729474e-02
1.786935403366831e-01 -1.345793167081805e-01 6.216183556365791e-01
2.633404265959702e-01 -4.205959830560326e-01 -1.676964795511055e+00
2.040670822678971e-01 -3.604220540124412e-01 -7.216368067995427e-01
1.490192589050450e-01 -2.484568640413143e-01 1.769718098344211e-01
7.841194524951882e-02 -1.458374383186100e-01 6.992232554447438e-01
1.836657482026193e-01 -3.136467847601510e-01 -1.687648476144855e+00
1.437510142397097e-01 -2.677103653088508e-01 -6.298973906587895e-01
8.897218195623152e-02 -1.759204672093660e-01 2.659894614133300e-01
3.905907448857375e-02 -9.914299078273442e-02 7.661882413555164e-01
1.146447153632296e-01 -1.146447153632765e-01 -1.712274230783914e+00
1.014532555244243e-01 -1.014532555247209e-01 -5.708683560013476e-01
6.713893340070341e-02 -6.713893340092383e-02 3.220429959631763e-01
3.921156209944775e-02 -3.921156209945639e-02 8.051643925014181e-01
3.136467847603754e-01 1.836657482026072e-01 -1.687648476145014e+00
2.677103653088540e-01 1.437510142397838e-01 -6.298973906589774e-01
1.759204672092250e-01 8.897218195624168e-02 2.659894614135431e-01
9.914299078265015e-02 3.905907448858063e-02 7.661882413556926e-01
3.933523146600282e-01 3.933523146599901e-01 -1.792017897573468e+00
2.737737645556836e-01 2.737737645556837e-01 -7.129595951774635e-01
1.582493305604199e-01 1.582493305604656e-01 2.026984058248410e-01
7.260397687708135e-02 7.260397687706184e-02 7.210690629655313e-01
3.395664279072144e-01 4.558046552067017e-01 -1.967119318697794e+00
1.743677318780924e-02 2.938714245901635e-01 -8.133580123151339e-01
-1.582757927025454e-01 1.614986386751491e-01 1.688734123319777e-01
-1.554784031914397e-01 8.931303105452656e-02 7.234155481460959e-01
3.452079422403062e-01 4.498546643398407e-01 -2.121285159345971e+00
-2.457458537032425e-01 3.117343376674921e-01 -8.932229277218786e-01
-5.633984221940388e-01 1.881050585894760e-01 1.504625467871753e-01
-4.757900360116330e-01 1.092019226872659e-01 7.511605715353756e-01
4.357073555590110e-01 2.097437578398487e-01 -2.228088998326326e+00
-3.377840664996568e-01 1.605926804634785e-01 -9.469587249594049e-01
-7.629535881049765e-01 1.113734503497070e-01 1.166552054751444e-01
-6.489222833033058e-01 6.437156408858803e-02 7.374117245997805e-01
4.357073555590122e-01 -2.097437578399096e-01 -2.228088998326454e+00
-3.377840664995941e-01 -1.605926804634806e-01 -9.469587249594080e-01
-7.629535881049400e-01 -1.113734503497972e-01 1.166552054751154e-01
-6.489222833033480e-01 -6.437156408870998e-02 7.374117245997831e-01
3.452079422402081e-01 -4.498546643400759e-01 -2.121285159345986e+00
-2.457458537032686e-01 -3.117343376675102e-01 -8.932229277216999e-01
-5.633984221940588e-01 -1.881050585893311e-01 1.504625467870319e-01
-4.757900360117412e-01 -1.092019226872979e-01 7.511605715352124e-01
3.395664279071052e-01 -4.558046552065397e-01 -1.967119318697691e+00
1.743677318768759e-02 -2.938714245900251e-01 -8.133580123148073e-01
-1.582757927026293e-01 -1.614986386749366e-01 1.688734123318832e-01
-1.554784031915492e-01 -8.931303105431529e-02 7.234155481458310e-01
3.933523146598905e-01 -3.933523146597381e-01 -1.792017897573339e+00
2.737737645555848e-01 -2.737737645555804e-01 -7.129595951772396e-01
1.582493305605492e-01 -1.582493305603992e-01 2.026984058247565e-01
7.260397687723724e-02 -7.260397687702012e-02 7.210690629652828e-01
3.136467847603186e-01 -1.836657482027275e-01 -1.687648476145001e+00
2.677103653088740e-01 -1.437510142400391e-01 -6.298973906588933e-01
1.759204672093870e-01 -8.897218195655547e-02 2.659894614135106e-01
9.914299078279741e-02 -3.905907448869247e-02 7.661882413554910e-01
4.205959830561781e-01 2.633404265959836e-01 -1.676964795511307e+00
3.604220540125628e-01 2.040670822678129e-01 -7.216368067999567e-01
2.484568640413114e-01 1.490192589049252e-01 1.769718098345320e-01
1.458374383185392e-01 7.841194524953514e-02 6.992232554449277e-01
4.558046552067120e-01 3.395664279071993e-01 -1.967119318697963e+00
2.938714245900790e-01 1.743677318787837e-02 -8.133580123152274e-01
1.614986386749479e-01 -1.582757927024353e-01 1.688734123320024e-01
8.931303105439178e-02 -1.554784031914060e-01 7.234155481461595e-01
6.169611964874081e-01 6.169611964874215e-01 -2.404115860412400e+00
1.242669089661956e-01 1.242669089662625e-01 -1.000964196723844e+00
-2.698181077847089e-01 -2.698181077845374e-01 2.651916993493276e-01
-3.289427103419045e-01 -3.289427103418166e-01 1.084710046397751e+00
1.790939591221560e+00 7.536357673158223e-01 -2.508968907105913e+00
1.285125724799673e+00 3.891122104660937e-01 -1.104967219511335e+00
5.189647998484027e-01 1.267522646536321e-02 2.989573059987539e-01
-9.342022338781342e-02 -1.687127950812611e-01 1.353200074790675e+00
2.346485002655453e+00 2.067868110595815e-01 -2.661426978572810e+00
1.926418101357990e+00 5.707452961696109e-02 -1.207380362477191e+00
1.048562097352810e+00 -5.943165839112902e-02 2.749296839368152e-01
9.576105390294684e-02 -8.836360556894465e-02 1.462512977807803e+00
2.346485002655398e+00 -2.067868110597501e-01 -2.661426978572808e+00
1.926418101357970e+00 -5.707452961698806e-02 -1.207380362477151e+00
1.048562097352818e+00 5.943165839105121e-02 2.749296839367747e-01
9.576105390294933e-02 8.836360556878992e-02 1.462512977807748e+00
1.790939591221574e+00 -7.536357673160025e-01 -2.508968907105944e+00
1.285125724799629e+00 -3.891122104662070e-01 -1.104967219511149e+00
5.189647998483909e-01 -1.267522646533037e-02 2.989573059986544e-01
-9.342022338780064e-02 1.687127950811882e-01 1.353200074790460e+00
6.169611964874563e-01 -6.169611964872953e-01 -2.404115860412342e+00
1.242669089661253e-01 -1.242669089660959e-01 -1.000964196723532e+00
-2.698181077847255e-01 2.698181077848634e-01 2.651916993493253e-01
-3.289427103418580e-01 3.289427103422158e-01 1.084710046397477e+00
4.558046552066696e-01 -3.395664279069306e-01 -1.967119318697764e+00
2.938714245900330e-01 -1.743677318765630e-02 -8.133580123148801e-01
1.614986386749648e-01 1.582757927026537e-01 1.688734123320951e-01
8.931303105456175e-02 1.554784031916120e-01 7.234155481459238e-01
4.205959830562159e-01 -2.633404265960297e-01 -1.676964795511215e+00
3.604220540125740e-01 -2.040670822680915e-01 -7.216368067997950e-01
2.484568640413270e-01 -1.490192589054499e-01 1.769718098345730e-01
1.458374383186288e-01 -7.841194524989623e-02 6.992232554447537e-01
3.594692114419695e-01 3.615621817401973e-01 -1.658422657722230e+00
3.174586437267074e-01 3.041088024810686e-01 -8.052667174139406e-01
2.245812676797289e-01 2.710646735908495e-01 8.797420026726109e-02
1.345793167080850e-01 1.786935403367927e-01 6.216183556366894e-01
4.498546643398936e-01 3.452079422403052e-01 -2.121285159346159e+00
3.117343376676023e-01 -2.457458537031560e-01 -8.932229277220560e-01
1.881050585895046e-01 -5.633984221939223e-01 1.504625467871339e-01
1.092019226873602e-01 -4.757900360114894e-01 7.511605715355342e-01
7.536357673158410e-01 1.790939591221501e+00 -2.508968907105951e+00
3.891122104661128e-01 1.285125724799720e+00 -1.104967219511437e+00
1.267522646530224e-02 5.189647998485307e-01 2.989573059987543e-01
-1.687127950811580e-01 -9.342022338772762e-02 1.353200074790809e+00
7.536357673160130e-01 -1.790939591221525e+00 -2.508968907105982e+00
3.891122104660863e-01 -1.285125724799691e+00 -1.104967219511244e+00
1.267522646525970e-02 -5.189647998483590e-01 2.989573059987925e-01
-1.687127950811594e-01 9.342022338806885e-02 1.353200074790605e+00
4.498546643399333e-01 -3.452079422400686e-01 -2.121285159346068e+00
3.117343376673680e-01 2.457458537033722e-01 -8.932229277218572e-01
1.881050585892193e-01 5.633984221940548e-01 1.504625467873139e-01
1.092019226871475e-01 4.757900360116391e-01 7.511605715354621e-01
3.594692114419789e-01 -3.615621817402773e-01 -1.658422657722198e+00
3.174586437265823e-01 -3.041088024812306e-01 -8.052667174138812e-01
2.245812676795875e-01 -2.710646735911793e-01 8.797420026729295e-02
1.345793167079519e-01 -1.786935403371156e-01 6.216183556366435e-01
1.381554072527398e-01 4.501868423216050e-01 -1.629740031953500e+00
1.228556111681363e-01 3.969809790020108e-01 -8.599453640590874e-01
8.448891903562530e-02 3.815964091237881e-01 2.887606088673868e-02
4.841081409952883e-02 2.661558463765027e-01 5.693010896490905e-01
2.097437578398403e-01 4.357073555589931e-01 -2.228088998326251e+00
1.605926804635721e-01 -3.377840664996767e-01 -9.469587249596041e-01
1.113734503498542e-01 -7.629535881048291e-01 1.166552054751432e-01
6.437156408879588e-02 -6.489222833030023e-01 7.374117246000564e-01
2.067868110596187e-01 2.346485002655402e+00 -2.661426978572826e+00
5.707452961693468e-02 1.926418101357942e+00 -1.207380362477314e+00
-5.943165839099511e-02 1.048562097352840e+00 2.749296839369368e-01
-8.836360556870955e-02 9.576105390293706e-02 1.462512977808093e+00
2.067868110596656e-01 -2.346485002655491e+00 -2.661426978572925e+00
5.707452961696432e-02 -1.926418101358082e+00 -1.207380362477269e+00
-5.943165839116051e-02 -1.048562097352818e+00 2.749296839369303e-01
-8.836360556895584e-02 -9.576105390281119e-02 1.462512977807937e+00
2.097437578398067e-01 -4.357073555588901e-01 -2.228088998326486e+00
1.605926804634700e-01 3.377840664997638e-01 -9.469587249594595e-01
1.113734503497647e-01 7.629535881049826e-01 1.166552054752955e-01
6.437156408852207e-02 6.489222833031442e-01 7.374117245999683e-01
1.381554072526319e-01 -4.501868423216133e-01 -1.629740031953672e+00
1.228556111680143e-01 -3.969809790019143e-01 -8.599453640589896e-01
8.448891903562805e-02 -3.815964091239519e-01 2.887606088677683e-02
4.841081409948356e-02 -2.661558463765775e-01 5.693010896490004e-01
-1.381554072526829e-01 4.501868423216225e-01 -1.629740031953396e+00
-1.228556111680700e-01 3.969809790020103e-01 -8.599453640591918e-01
-8.448891903570466e-02 3.815964091238191e-01 2.887606088667739e-02
-4.841081409961177e-02 2.661558463765302e-01 5.693010896491240e-01
-2.097437578399179e-01 4.357073555588760e-01 -2.228088998326209e+00
-1.605926804636455e-01 -3.377840664997832e-01 -9.469587249596398e-01
-1.113734503498547e-01 -7.629535881047630e-01 1.166552054752104e-01
-6.437156408873657e-02 -6.489222833029095e-01 7.374117246000453e-01
-2.067868110598524e-01 2.346485002655399e+00 -2.661426978572843e+00
-5.707452961714847e-02 1.926418101357946e+00 -1.207380362477253e+00
5.943165839098977e-02 1.048562097352840e+00 2.749296839370666e-01
8.836360556875636e-02 9.576105390289633e-02 1.462512977808007e+00
-2.067868110596735e-01 -2.346485002655453e+00 -2.661426978572795e+00
-5.707452961680325e-02 -1.926418101358029e+00 -1.207380362477275e+00
5.943165839106285e-02 -1.048562097352731e+00 2.749296839367324e-01
8.836360556871625e-02 -9.576105390281353e-02 1.462512977807915e+00
-2.097437578397755e-01 -4.357073555589075e-01 -2.228088998326462e+00
-1.605926804632816e-01 3.377840664996848e-01 -9.469587249594159e-01
-1.113734503497418e-01 7.629535881049960e-01 1.166552054751331e-01
-6.437156408870925e-02 6.489222833032278e-01 7.374117245998838e-01
-1.381554072526491e-01 -4.501868423215969e-01 -1.629740031953644e+00
-1.228556111679709e-01 -3.969809790019485e-01 -8.599453640590144e-01
-8.448891903569140e-02 -3.815964091240275e-01 2.887606088673149e-02
-4.841081409958876e-02 -2.661558463765789e-01 5.693010896490017e-01
-3.594692114421198e-01 3.615621817401776e-01 -1.658422657722075e+00
-3.174586437267491e-01 3.041088024810290e-01 -8.052667174139738e-01
-2.245812676795623e-01 2.710646735909283e-01 8.797420026721836e-02
-1.345793167079579e-01 1.786935403369092e-01 6.216183556366345e-01
-4.498546643401278e-01 3.452079422399961e-01 -2.121285159346086e+00
-3.117343376677310e-01 -2.457458537034625e-01 -8.932229277219739e-01
-1.881050585894983e-01 -5.633984221940429e-01 1.504625467873010e-01
-1.092019226873810e-01 -4.757900360115160e-01 7.511605715354138e-01
-7.536357673161374e-01 1.790939591221501e+00 -2.508968907105984e+00
-3.891122104663133e-01 1.285125724799721e+00 -1.104967219511290e+00
-1.267522646558646e-02 5.189647998484479e-01 2.989573059989544e-01
1.687127950808999e-01 -9.342022338787577e-02 1.353200074790710e+00
-7.536357673161012e-01 -1.790939591221484e+00 -2.508968907105772e+00
-3.891122104663253e-01 -1.285125724799607e+00 -1.104967219511334e+00
-1.267522646541321e-02 -5.189647998482689e-01 2.989573059985671e-01
1.687127950811731e-01 9.342022338800371e-02 1.353200074790624e+00
-4.498546643400178e-01 -3.452079422400925e-01 -2.121285159346027e+00
-3.117343376675787e-01 2.457458537033170e-01 -8.932229277218415e-01