<?xml version="1.0" ?> 
<!-- 
# vtk DataFile Version 3.0
-->
<VTKFile type="UnstructuredGrid" version="0.1" compressor="vtkZLibDataCompressor" byte_order="LittleEndian">
  <UnstructuredGrid>
    <FieldData>
      <DataArray type="Float64" Name="TIME" NumberOfTuples="1" format="ascii">
1.250000000000001e-01 
      </DataArray>
    </FieldData>

    <Piece NumberOfPoints="252" NumberOfCells="0" >
      <Points>
        <DataArray type="Float64" NumberOfComponents="3" format="ascii">
-4.498776062083778e-01 -4.498776062083779e-01 9.959986405749046e-01
-4.500145500294828e-01 -3.498542004306572e-01 9.963814074431693e-01
-4.501129303235354e-01 -2.498345309978454e-01 9.967655829061801e-01
-3.498542004306573e-01 -4.500145500294828e-01 9.963814074431692e-01
-3.499222045938636e-01 -3.499222045938636e-01 9.961154044391666e-01
-3.499839337286121e-01 -2.498446564889880e-01 9.958502655797101e-01
-2.498345309978453e-01 -4.501129303235353e-01 9.967655829061801e-01
-2.498446564889880e-01 -3.499839337286121e-01 9.958502655797101e-01
-2.502088289114029e-01 -2.502088289114029e-01 9.949415423434161e-01
-1.498356512716854e-01 -4.501637437925127e-01 9.971502107768186e-01
-1.498447651401225e-01 -3.500900468964143e-01 9.955868263948374e-01
-1.502134104745357e-01 -2.504720806744924e-01 9.940339512353134e-01
-4.987500173949442e-02 -4.502487971382769e-01 9.975361070258552e-01
-4.996637758003153e-02 -3.501858626390165e-01 9.953248555555650e-01
-5.023118016052266e-02 -2.506694486034639e-01 9.931284374499290e-01
-4.520793722737506e-01 2.488293042467518e-01 9.967875459855373e-01
-4.502965996492003e-01 3.493539474767985e-01 9.963840836376197e-01
-4.505776855479857e-01 3.489097156821662e-01 9.963865587774647e-01
-4.494069716363601e-01 4.494069716363601e-01 9.960022248158803e-01
-4.490123330872031e-01 4.490123330872031e-01 9.960052081585576e-01
-3.509264828281531e-01 2.499813004740199e-01 9.958592353066965e-01
-3.519030410643259e-01 2.501450391037707e-01 9.958685670715592e-01
-3.501431292167876e-01 3.501431292167875e-01 9.961165743734821e-01
-3.504002991816499e-01 3.504002991816499e-01 9.961179282811109e-01
-4.501637437925127e-01 -1.498356512716854e-01 9.971502107768186e-01
-4.502487971382770e-01 -4.987500173949436e-02 9.975361070258552e-01
-3.493539474767985e-01 4.502965996492004e-01 9.963840836376197e-01
-3.489097156821662e-01 4.505776855479858e-01 9.963865587774647e-01
-3.500900468964143e-01 -1.498447651401226e-01 9.955868263948375e-01
-3.501858626390166e-01 -4.996637758003154e-02 9.953248555555652e-01
-2.509798981524530e-01 2.509798981524531e-01 9.949555640903913e-01
-2.518736394434323e-01 2.518736394434323e-01 9.949717201738164e-01
-2.504720806744925e-01 -1.502134104745357e-01 9.940339512353134e-01
-2.506694486034639e-01 -5.023118016052270e-02 9.931284374499290e-01
-2.499813004740199e-01 3.509264828281531e-01 9.958592353066964e-01
-2.501450391037706e-01 3.519030410643259e-01 9.958685670715592e-01
-2.493075470595551e-01 4.511276960776379e-01 9.967769169632732e-01
-2.488293042467519e-01 4.520793722737506e-01 9.967875459855373e-01
-1.508710605402283e-01 2.509903429278160e-01 9.940479978789318e-01
-1.515835131052277e-01 2.519826283179665e-01 9.940698471464017e-01
-1.499628615676382e-01 3.516826467948523e-01 9.956120060284789e-01
-1.500883090089554e-01 3.533102244987034e-01 9.956377250729617e-01
-1.493015513135224e-01 4.518731528888968e-01 9.971790271530288e-01
-1.488079477941426e-01 4.534602487588733e-01 9.972058783306025e-01
-5.127817655136732e-02 2.514363418077929e-01 9.931548314476337e-01
-5.216294802749941e-02 2.527300003555640e-01 9.931912272094383e-01
-5.017304635547782e-02 3.524559249928929e-01 9.953755275591032e-01
-5.033156462690552e-02 3.547093906558096e-01 9.954256595912770e-01
-4.936969681641229e-02 4.526721755565272e-01 9.975916895170479e-01
-4.890648338022055e-02 4.548973870163160e-01 9.976428634480751e-01
1.498356512716856e-01 4.501637437925126e-01 9.971502107768185e-01
2.502088289114031e-01 2.502088289114030e-01 9.949415423434163e-01
2.498446564889880e-01 3.499839337286120e-01 9.958502655797100e-01
2.498345309978455e-01 4.501129303235354e-01 9.967655829061802e-01
2.509903429278159e-01 -1.508710605402284e-01 9.940479978789318e-01
2.519826283179665e-01 -1.515835131052277e-01 9.940698471464016e-01
-4.494069716363600e-01 -4.494069716363601e-01 9.960022248158801e-01
-4.490123330872031e-01 -4.490123330872031e-01 9.960052081585576e-01
-4.502965996492004e-01 -3.493539474767985e-01 9.963840836376195e-01
-4.505776855479857e-01 -3.489097156821661e-01 9.963865587774646e-01
-4.511276960776378e-01 -2.493075470595550e-01 9.967769169632730e-01
-4.520793722737505e-01 -2.488293042467519e-01 9.967875459855373e-01
-3.493539474767985e-01 -4.502965996492004e-01 9.963840836376195e-01
-3.489097156821661e-01 -4.505776855479857e-01 9.963865587774645e-01
-3.501431292167875e-01 -3.501431292167875e-01 9.961165743734820e-01
-3.504002991816498e-01 -3.504002991816498e-01 9.961179282811107e-01
-3.509264828281533e-01 -2.499813004740198e-01 9.958592353066964e-01
-3.519030410643259e-01 -2.501450391037706e-01 9.958685670715594e-01
-2.493075470595550e-01 -4.511276960776377e-01 9.967769169632730e-01
-2.488293042467519e-01 -4.520793722737506e-01 9.967875459855372e-01
-2.499813004740198e-01 -3.509264828281531e-01 9.958592353066963e-01
-2.501450391037706e-01 -3.519030410643259e-01 9.958685670715595e-01
-2.509798981524531e-01 -2.509798981524531e-01 9.949555640903914e-01
-2.518736394434324e-01 -2.518736394434323e-01 9.949717201738164e-01
-1.493015513135223e-01 -4.518731528888968e-01 9.971790271530288e-01
-1.488079477941425e-01 -4.534602487588731e-01 9.972058783306025e-01
-1.499628615676382e-01 -3.516826467948522e-01 9.956120060284788e-01
-1.500883090089553e-01 -3.533102244987035e-01 9.956377250729616e-01
-1.508710605402284e-01 -2.509903429278159e-01 9.940479978789318e-01
-1.515835131052279e-01 -2.519826283179665e-01 9.940698471464017e-01
-4.936969681641223e-02 -4.526721755565270e-01 9.975916895170480e-01
-4.890648338022047e-02 -4.548973870163161e-01 9.976428634480752e-01
-5.017304635547784e-02 -3.524559249928928e-01 9.953755275591031e-01
-5.033156462690544e-02 -3.547093906558095e-01 9.954256595912769e-01
-5.127817655136738e-02 -2.514363418077930e-01 9.931548314476338e-01
-5.216294802749943e-02 -2.527300003555640e-01 9.931912272094383e-01
2.514363418077930e-01 -5.127817655136738e-02 9.931548314476338e-01
2.527300003555640e-01 -5.216294802749939e-02 9.931912272094383e-01
3.499839337286121e-01 2.498446564889880e-01 9.958502655797101e-01
3.499222045938637e-01 3.499222045938636e-01 9.961154044391666e-01
3.498542004306572e-01 4.500145500294828e-01 9.963814074431691e-01
4.501129303235355e-01 2.498345309978454e-01 9.967655829061801e-01
3.516826467948522e-01 -1.499628615676381e-01 9.956120060284788e-01
3.533102244987035e-01 -1.500883090089554e-01 9.956377250729618e-01
3.524559249928929e-01 -5.017304635547790e-02 9.953755275591030e-01
3.547093906558096e-01 -5.033156462690542e-02 9.954256595912772e-01
4.500145500294828e-01 3.498542004306572e-01 9.963814074431691e-01
4.498776062083777e-01 4.498776062083777e-01 9.959986405749045e-01
1.500883090089554e-01 3.533102244987035e-01 9.956377250729618e-01
1.493015513135223e-01 4.518731528888967e-01 9.971790271530288e-01
4.518731528888967e-01 -1.493015513135224e-01 9.971790271530288e-01
-4.518731528888968e-01 -1.493015513135224e-01 9.971790271530288e-01
-4.534602487588731e-01 -1.488079477941426e-01 9.972058783306025e-01
-4.526721755565270e-01 -4.936969681641223e-02 9.975916895170479e-01
-4.548973870163159e-01 -4.890648338022049e-02 9.976428634480750e-01
4.987500173949445e-02 -4.502487971382770e-01 9.975361070258553e-01
4.996637758003167e-02 -3.501858626390166e-01 9.953248555555652e-01
5.023118016052280e-02 -2.506694486034640e-01 9.931284374499290e-01
1.498356512716856e-01 -4.501637437925126e-01 9.971502107768186e-01
-3.516826467948523e-01 -1.499628615676381e-01 9.956120060284788e-01
-3.533102244987036e-01 -1.500883090089553e-01 9.956377250729618e-01
-3.524559249928929e-01 -5.017304635547782e-02 9.953755275591031e-01
-3.547093906558094e-01 -5.033156462690539e-02 9.954256595912772e-01
1.498447651401227e-01 -3.500900468964143e-01 9.955868263948375e-01
1.502134104745358e-01 -2.504720806744924e-01 9.940339512353134e-01
2.498345309978455e-01 -4.501129303235354e-01 9.967655829061802e-01
2.498446564889881e-01 -3.499839337286120e-01 9.958502655797100e-01
-2.509903429278159e-01 -1.508710605402283e-01 9.940479978789318e-01
-2.519826283179665e-01 -1.515835131052279e-01 9.940698471464016e-01
-2.514363418077930e-01 -5.127817655136733e-02 9.931548314476337e-01
-2.527300003555641e-01 -5.216294802749941e-02 9.931912272094383e-01
2.502088289114031e-01 -2.502088289114029e-01 9.949415423434163e-01
3.498542004306572e-01 -4.500145500294828e-01 9.963814074431693e-01
3.499222045938638e-01 -3.499222045938636e-01 9.961154044391667e-01
3.499839337286120e-01 -2.498446564889880e-01 9.958502655797101e-01
4.498776062083778e-01 -4.498776062083777e-01 9.959986405749046e-01
4.500145500294829e-01 -3.498542004306573e-01 9.963814074431693e-01
4.501129303235355e-01 -2.498345309978454e-01 9.967655829061802e-01
4.534602487588734e-01 -1.488079477941426e-01 9.972058783306026e-01
4.526721755565272e-01 -4.936969681641226e-02 9.975916895170480e-01
4.548973870163161e-01 -4.890648338022053e-02 9.976428634480752e-01
3.524559249928928e-01 5.017304635547797e-02 9.953755275591030e-01
3.547093906558096e-01 5.033156462690549e-02 9.954256595912772e-01
3.516826467948523e-01 1.499628615676383e-01 9.956120060284789e-01
3.533102244987035e-01 1.500883090089554e-01 9.956377250729618e-01
1.488079477941426e-01 4.534602487588733e-01 9.972058783306026e-01
2.509798981524530e-01 2.509798981524531e-01 9.949555640903914e-01
2.518736394434323e-01 2.518736394434323e-01 9.949717201738163e-01
2.499813004740198e-01 3.509264828281531e-01 9.958592353066964e-01
4.526721755565271e-01 4.936969681641232e-02 9.975916895170479e-01
4.548973870163160e-01 4.890648338022049e-02 9.976428634480750e-01
4.518731528888968e-01 1.493015513135224e-01 9.971790271530286e-01
4.534602487588732e-01 1.488079477941426e-01 9.972058783306027e-01
2.501450391037706e-01 3.519030410643258e-01 9.958685670715594e-01
2.504720806744924e-01 -1.502134104745357e-01 9.940339512353134e-01
2.506694486034639e-01 -5.023118016052267e-02 9.931284374499290e-01
2.493075470595550e-01 4.511276960776379e-01 9.967769169632732e-01
2.488293042467518e-01 4.520793722737505e-01 9.967875459855373e-01
3.500900468964143e-01 -1.498447651401226e-01 9.955868263948375e-01
3.501858626390166e-01 -4.996637758003154e-02 9.953248555555652e-01
3.509264828281531e-01 2.499813004740198e-01 9.958592353066963e-01
3.519030410643259e-01 2.501450391037706e-01 9.958685670715592e-01
4.501637437925127e-01 -1.498356512716854e-01 9.971502107768186e-01
4.502487971382769e-01 -4.987500173949438e-02 9.975361070258552e-01
3.501431292167875e-01 3.501431292167876e-01 9.961165743734821e-01
3.504002991816498e-01 3.504002991816498e-01 9.961179282811107e-01
3.493539474767985e-01 4.502965996492005e-01 9.963840836376197e-01
3.489097156821662e-01 4.505776855479858e-01 9.963865587774646e-01
4.511276960776378e-01 2.493075470595551e-01 9.967769169632731e-01
4.520793722737506e-01 2.488293042467519e-01 9.967875459855374e-01
4.502965996492004e-01 3.493539474767985e-01 9.963840836376195e-01
4.505776855479858e-01 3.489097156821662e-01 9.963865587774647e-01
-4.502487971382770e-01 4.987500173949444e-02 9.975361070258553e-01
-4.501637437925124e-01 1.498356512716854e-01 9.971502107768186e-01
4.494069716363600e-01 4.494069716363601e-01 9.960022248158803e-01
-3.501858626390165e-01 4.996637758003161e-02 9.953248555555648e-01
-3.500900468964143e-01 1.498447651401226e-01 9.955868263948375e-01
-2.506694486034639e-01 5.023118016052269e-02 9.931284374499290e-01
-2.504720806744924e-01 1.502134104745358e-01 9.940339512353132e-01
4.490123330872030e-01 4.490123330872030e-01 9.960052081585576e-01
5.127817655136752e-02 2.514363418077930e-01 9.931548314476339e-01
5.216294802749949e-02 2.527300003555640e-01 9.931912272094383e-01
5.017304635547801e-02 3.524559249928929e-01 9.953755275591030e-01
2.506694486034639e-01 5.023118016052274e-02 9.931284374499291e-01
2.504720806744924e-01 1.502134104745358e-01 9.940339512353132e-01
4.936969681641237e-02 -4.526721755565269e-01 9.975916895170479e-01
4.890648338022055e-02 -4.548973870163160e-01 9.976428634480750e-01
5.017304635547798e-02 -3.524559249928928e-01 9.953755275591030e-01
5.033156462690552e-02 -3.547093906558095e-01 9.954256595912772e-01
-4.501129303235354e-01 2.498345309978454e-01 9.967655829061801e-01
-4.500145500294828e-01 3.498542004306572e-01 9.963814074431692e-01
-4.498776062083778e-01 4.498776062083776e-01 9.959986405749044e-01
-3.499839337286121e-01 2.498446564889881e-01 9.958502655797101e-01
-3.499222045938636e-01 3.499222045938637e-01 9.961154044391665e-01
-3.498542004306573e-01 4.500145500294828e-01 9.963814074431693e-01
-2.502088289114030e-01 2.502088289114031e-01 9.949415423434163e-01
-2.498446564889880e-01 3.499839337286120e-01 9.958502655797101e-01
-2.498345309978454e-01 4.501129303235355e-01 9.967655829061801e-01
-1.502134104745357e-01 2.504720806744925e-01 9.940339512353132e-01
-1.498447651401226e-01 3.500900468964143e-01 9.955868263948376e-01
-1.498356512716854e-01 4.501637437925127e-01 9.971502107768186e-01
-5.023118016052264e-02 2.506694486034639e-01 9.931284374499291e-01
-4.996637758003150e-02 3.501858626390166e-01 9.953248555555652e-01
-4.987500173949441e-02 4.502487971382769e-01 9.975361070258550e-01
5.127817655136752e-02 -2.514363418077930e-01 9.931548314476337e-01
5.216294802749952e-02 -2.527300003555640e-01 9.931912272094383e-01
1.493015513135224e-01 -4.518731528888968e-01 9.971790271530288e-01
1.488079477941426e-01 -4.534602487588731e-01 9.972058783306025e-01
1.499628615676382e-01 -3.516826467948523e-01 9.956120060284789e-01
1.500883090089554e-01 -3.533102244987036e-01 9.956377250729618e-01
1.508710605402285e-01 -2.509903429278158e-01 9.940479978789318e-01
1.515835131052279e-01 -2.519826283179664e-01 9.940698471464016e-01
2.493075470595550e-01 -4.511276960776379e-01 9.967769169632732e-01
2.488293042467518e-01 -4.520793722737505e-01 9.967875459855376e-01
2.499813004740199e-01 -3.509264828281531e-01 9.958592353066965e-01
2.501450391037706e-01 -3.519030410643259e-01 9.958685670715594e-01
2.509798981524530e-01 -2.509798981524530e-01 9.949555640903914e-01
2.518736394434323e-01 -2.518736394434323e-01 9.949717201738162e-01
3.493539474767986e-01 -4.502965996492004e-01 9.963840836376197e-01
3.489097156821661e-01 -4.505776855479857e-01 9.963865587774647e-01
3.501431292167876e-01 -3.501431292167875e-01 9.961165743734823e-01
3.504002991816499e-01 -3.504002991816498e-01 9.961179282811108e-01
3.509264828281532e-01 -2.499813004740198e-01 9.958592353066964e-01
-4.526721755565269e-01 4.936969681641240e-02 9.975916895170478e-01
-4.548973870163161e-01 4.890648338022052e-02 9.976428634480751e-01
-4.518731528888968e-01 1.493015513135224e-01 9.971790271530288e-01
-4.534602487588733e-01 1.488079477941427e-01 9.972058783306027e-01
3.519030410643259e-01 -2.501450391037706e-01 9.958685670715592e-01
4.494069716363600e-01 -4.494069716363601e-01 9.960022248158802e-01
4.490123330872030e-01 -4.490123330872030e-01 9.960052081585575e-01
4.502965996492005e-01 -3.493539474767985e-01 9.963840836376197e-01
-3.524559249928927e-01 5.017304635547798e-02 9.953755275591030e-01
-3.547093906558095e-01 5.033156462690549e-02 9.954256595912772e-01
-3.516826467948523e-01 1.499628615676382e-01 9.956120060284789e-01
-3.533102244987035e-01 1.500883090089553e-01 9.956377250729618e-01
4.505776855479857e-01 -3.489097156821660e-01 9.963865587774645e-01
4.511276960776379e-01 -2.493075470595551e-01 9.967769169632732e-01
4.520793722737506e-01 -2.488293042467519e-01 9.967875459855373e-01
-2.514363418077929e-01 5.127817655136748e-02 9.931548314476339e-01
-2.527300003555640e-01 5.216294802749952e-02 9.931912272094384e-01
-2.509903429278158e-01 1.508710605402284e-01 9.940479978789318e-01
-2.519826283179664e-01 1.515835131052279e-01 9.940698471464017e-01
3.501858626390166e-01 4.996637758003163e-02 9.953248555555649e-01
3.500900468964143e-01 1.498447651401226e-01 9.955868263948375e-01
5.033156462690555e-02 3.547093906558096e-01 9.954256595912770e-01
4.502487971382770e-01 4.987500173949447e-02 9.975361070258552e-01
4.501637437925126e-01 1.498356512716855e-01 9.971502107768185e-01
4.936969681641237e-02 4.526721755565272e-01 9.975916895170480e-01
4.890648338022061e-02 4.548973870163160e-01 9.976428634480750e-01
1.508710605402284e-01 2.509903429278159e-01 9.940479978789318e-01
2.514363418077930e-01 5.127817655136748e-02 9.931548314476339e-01
2.527300003555640e-01 5.216294802749948e-02 9.931912272094383e-01
2.509903429278159e-01 1.508710605402284e-01 9.940479978789318e-01
2.519826283179664e-01 1.515835131052279e-01 9.940698471464016e-01
1.515835131052279e-01 2.519826283179664e-01 9.940698471464017e-01
1.499628615676382e-01 3.516826467948522e-01 9.956120060284788e-01
5.023118016052275e-02 2.506694486034639e-01 9.931284374499290e-01
4.996637758003161e-02 3.501858626390166e-01 9.953248555555649e-01
4.987500173949443e-02 4.502487971382769e-01 9.975361070258550e-01
1.502134104745357e-01 2.504720806744924e-01 9.940339512353134e-01
1.498447651401226e-01 3.500900468964142e-01 9.955868263948375e-01
-4.511276960776379e-01 2.493075470595550e-01 9.967769169632730e-01
        </DataArray>
      </Points>

      <Cells>
        <DataArray type="Int32" Name="connectivity" format="ascii">

        </DataArray>
        <DataArray type="Int32" Name="offsets" format="ascii">

        </DataArray>
        <DataArray type="UInt8" Name="types" format="ascii">

        </DataArray>
      </Cells>

  <PointData>
        <DataArray type="Float64" Name="contact force" NumberOfComponents="3" format="ascii">
3.924613636087723e-05 3.924613636090137e-05 -7.914861475921768e-03
4.694344573206619e-05 6.366337103891913e-05 -8.214026556732604e-03
8.279579950293590e-05 8.315563918150456e-05 -8.296508497652431e-03
6.366337103891439e-05 4.694344573209268e-05 -8.214026556732182e-03
1.400420198375564e-04 1.400420198375796e-04 -7.623457084622115e-03
2.538888185146611e-04 1.704792535480809e-04 -6.816928153156211e-03
8.315563918150349e-05 8.279579950293968e-05 -8.296508497652403e-03
1.704792535480693e-04 2.538888185146752e-04 -6.816928153156028e-03
3.153145677477657e-04 3.153145677477873e-04 -5.303699439695559e-03
7.255857401878992e-05 1.317305554447559e-04 -8.356741068694700e-03
1.528207495157979e-04 3.714855060051033e-04 -5.767968501291652e-03
2.419690734352099e-04 5.773116945235133e-04 -4.338308495939810e-03
4.364632456919658e-05 1.549208350425078e-04 -8.639723614862066e-03
5.975036812492348e-05 4.580317097336284e-04 -4.953448422743884e-03
6.274060510187727e-05 7.018926364060256e-04 -2.519264221980861e-03
-1.572781512575210e-12 -2.987500595931163e-12 -3.903048359290370e-10
1.056875912844678e-06 -5.377283044789296e-06 -7.194803133340925e-04
-5.950701758847147e-14 -1.670954727156209e-12 -2.550198135174657e-10
3.688887295090816e-06 -3.688887295089802e-06 -7.105319255241812e-04
7.461838713812620e-13 -7.461838713812042e-13 -1.551678390548834e-10
5.995009302408383e-06 -6.776842323155414e-06 -6.169333166085468e-04
-4.697351493508920e-14 -5.273107373499149e-13 -9.772897199866372e-11
5.072745538565655e-06 -5.072745538565352e-06 -6.758326726509760e-04
5.259419882871276e-13 -5.259419882870811e-13 -1.686537871012676e-10
1.317305554447477e-04 7.255857401879148e-05 -8.356741068695123e-03
1.549208350424897e-04 4.364632456918034e-05 -8.639723614861998e-03
5.377283044789068e-06 -1.056875912843595e-06 -7.194803133340771e-04
1.670954727156667e-12 5.950701758857084e-14 -2.550198135175341e-10
3.714855060050921e-04 1.528207495157888e-04 -5.767968501292224e-03
4.580317097336177e-04 5.975036812489925e-05 -4.953448422744007e-03
1.074827261900276e-05 -1.074827261900164e-05 -5.494002036143108e-04
7.756649870398035e-14 -7.756649870396697e-14 -1.190916263226378e-11
5.773116945234952e-04 2.419690734352093e-04 -4.338308495939891e-03
7.018926364060265e-04 6.274060510185493e-05 -2.519264221980909e-03
6.776842323156036e-06 -5.995009302408600e-06 -6.169333166085252e-04
5.273107373498017e-13 4.697351493505904e-14 -9.772897199862734e-11
6.421276629640394e-06 2.109279495623234e-07 -7.183853252687634e-04
2.987500595931717e-12 1.572781512575526e-12 -3.903048359290965e-10
7.716468422485227e-06 -2.456830749626908e-05 -5.177378953115309e-04
-0.000000000000000e+00 -0.000000000000000e+00 -0.000000000000000e+00
6.152658200821173e-06 -7.983509460030155e-06 -5.365797642698051e-04
2.723030173505676e-13 1.031243080207734e-13 -4.374220287558468e-11
5.983898601897259e-06 4.675809572910544e-07 -7.157661608317616e-04
4.187155614330885e-12 3.826790593585778e-12 -5.675474334053592e-10
-1.170351388657780e-06 -2.883146100940584e-05 -4.380150336254509e-04
-0.000000000000000e+00 -0.000000000000000e+00 -0.000000000000000e+00
1.925823009383884e-06 -8.871838170402567e-06 -4.796904218933418e-04
3.588152684676294e-14 9.299098022945019e-14 -1.974570753301447e-11
3.997930548539024e-06 1.789289349154257e-06 -7.260797550816162e-04
4.384562544144732e-12 8.622492034505341e-12 -8.320132485977352e-10
-7.255857401879985e-05 -1.317305554447598e-04 -8.356741068694220e-03
-3.153145677477816e-04 -3.153145677477934e-04 -5.303699439695998e-03
-1.704792535481091e-04 -2.538888185146815e-04 -6.816928153155680e-03
-8.315563918152536e-05 -8.279579950289750e-05 -8.296508497652667e-03
-2.456830749626875e-05 7.716468422485528e-06 -5.177378953115367e-04
-0.000000000000000e+00 -0.000000000000000e+00 -0.000000000000000e+00
3.688887295090379e-06 3.688887295091211e-06 -7.105319255241898e-04
7.461838713809494e-13 7.461838713810259e-13 -1.551678390548297e-10
1.056875912842745e-06 5.377283044789665e-06 -7.194803133341028e-04
-5.950701758861442e-14 1.670954727156801e-12 -2.550198135175319e-10
-2.109279495629037e-07 6.421276629640235e-06 -7.183853252687798e-04
-1.572781512575167e-12 2.987500595931205e-12 -3.903048359290365e-10
5.377283044788670e-06 1.056875912843450e-06 -7.194803133341017e-04
1.670954727156337e-12 -5.950701758849995e-14 -2.550198135174772e-10
5.072745538564774e-06 5.072745538565950e-06 -6.758326726510022e-04
5.259419882867582e-13 5.259419882868596e-13 -1.686537871011423e-10
5.995009302407676e-06 6.776842323156571e-06 -6.169333166085159e-04
-4.697351493512850e-14 5.273107373499792e-13 -9.772897199867078e-11
6.421276629640355e-06 -2.109279495621143e-07 -7.183853252687705e-04
2.987500595931608e-12 -1.572781512575368e-12 -3.903048359290794e-10
6.776842323155989e-06 5.995009302408745e-06 -6.169333166085051e-04
5.273107373500371e-13 -4.697351493508466e-14 -9.772897199868577e-11
1.074827261900203e-05 1.074827261900280e-05 -5.494002036143090e-04
7.756649870397274e-14 7.756649870398261e-14 -1.190916263226317e-11
5.983898601897427e-06 -4.675809572919826e-07 -7.157661608318078e-04
4.187155614331773e-12 -3.826790593586992e-12 -5.675474334054863e-10
6.152658200820882e-06 7.983509460030328e-06 -5.365797642697904e-04
2.723030173504838e-13 -1.031243080207509e-13 -4.374220287557333e-11
7.716468422484946e-06 2.456830749626971e-05 -5.177378953115162e-04
-0.000000000000000e+00 -0.000000000000000e+00 -0.000000000000000e+00
3.997930548539179e-06 -1.789289349155898e-06 -7.260797550816372e-04
4.384562544145140e-12 -8.622492034506982e-12 -8.320132485978162e-10
1.925823009383676e-06 8.871838170402069e-06 -4.796904218933583e-04
3.588152684675235e-14 -9.299098022939462e-14 -1.974570753300894e-11
-1.170351388658006e-06 2.883146100940607e-05 -4.380150336254665e-04
-0.000000000000000e+00 -0.000000000000000e+00 -0.000000000000000e+00
-2.883146100940526e-05 -1.170351388657833e-06 -4.380150336254735e-04
-0.000000000000000e+00 -0.000000000000000e+00 -0.000000000000000e+00
-2.538888185146966e-04 -1.704792535481236e-04 -6.816928153156080e-03
-1.400420198375927e-04 -1.400420198375820e-04 -7.623457084621800e-03
-6.366337103893554e-05 -4.694344573204643e-05 -8.214026556731766e-03
-8.279579950291211e-05 -8.315563918152771e-05 -8.296508497652479e-03
-7.983509460029787e-06 6.152658200821745e-06 -5.365797642697904e-04
1.031243080207706e-13 2.723030173505270e-13 -4.374220287557396e-11
-8.871838170401612e-06 1.925823009383723e-06 -4.796904218933574e-04
9.299098022947866e-14 3.588152684678084e-14 -1.974570753301865e-11
-4.694344573206312e-05 -6.366337103892947e-05 -8.214026556731698e-03
-3.924613636087217e-05 -3.924613636084034e-05 -7.914861475921395e-03
-2.723030173505348e-13 1.031243080207190e-13 -4.374220287557065e-11
-5.983898601897460e-06 4.675809572920351e-07 -7.157661608317859e-04
4.675809572920359e-07 5.983898601897326e-06 -7.157661608318018e-04
-4.675809572920530e-07 5.983898601896889e-06 -7.157661608317964e-04
-3.826790593587153e-12 4.187155614331590e-12 -5.675474334054960e-10
-1.789289349156103e-06 3.997930548538612e-06 -7.260797550816311e-04
-8.622492034504652e-12 4.384562544143858e-12 -8.320132485976091e-10
-4.364632456917340e-05 1.549208350424927e-04 -8.639723614862224e-03
-5.975036812490887e-05 4.580317097336258e-04 -4.953448422744062e-03
-6.274060510186498e-05 7.018926364060208e-04 -2.519264221980910e-03
-7.255857401878180e-05 1.317305554447612e-04 -8.356741068694962e-03
7.983509460029506e-06 6.152658200820509e-06 -5.365797642698036e-04
-1.031243080208253e-13 2.723030173506122e-13 -4.374220287559634e-11
8.871838170401193e-06 1.925823009382872e-06 -4.796904218933668e-04
-9.299098022944458e-14 3.588152684676093e-14 -1.974570753301745e-11
-1.528207495157894e-04 3.714855060050873e-04 -5.767968501292047e-03
-2.419690734352049e-04 5.773116945235029e-04 -4.338308495940058e-03
-8.315563918150923e-05 8.279579950292791e-05 -8.296508497652649e-03
-1.704792535480704e-04 2.538888185146745e-04 -6.816928153155838e-03
2.456830749626956e-05 7.716468422485142e-06 -5.177378953115073e-04
-0.000000000000000e+00 -0.000000000000000e+00 -0.000000000000000e+00
2.883146100940589e-05 -1.170351388658236e-06 -4.380150336254668e-04
-0.000000000000000e+00 -0.000000000000000e+00 -0.000000000000000e+00
-3.153145677477641e-04 3.153145677477729e-04 -5.303699439695977e-03
-6.366337103892974e-05 4.694344573210398e-05 -8.214026556732479e-03
-1.400420198375600e-04 1.400420198375757e-04 -7.623457084622315e-03
-2.538888185146725e-04 1.704792535480759e-04 -6.816928153156094e-03
-3.924613636086842e-05 3.924613636091175e-05 -7.914861475921655e-03
-4.694344573206911e-05 6.366337103891451e-05 -8.214026556732517e-03
-8.279579950291545e-05 8.315563918149953e-05 -8.296508497652887e-03
3.826790593587231e-12 4.187155614331945e-12 -5.675474334055048e-10
1.789289349155417e-06 3.997930548538918e-06 -7.260797550816447e-04
8.622492034506830e-12 4.384562544145383e-12 -8.320132485978425e-10
-8.871838170401949e-06 -1.925823009384392e-06 -4.796904218933491e-04
9.299098022945213e-14 -3.588152684679132e-14 -1.974570753301803e-11
-7.983509460029982e-06 -6.152658200822040e-06 -5.365797642697875e-04
1.031243080207386e-13 -2.723030173505643e-13 -4.374220287557335e-11
-4.187155614331817e-12 3.826790593587274e-12 -5.675474334054879e-10
-1.074827261900275e-05 -1.074827261900273e-05 -5.494002036143333e-04
-7.756649870389682e-14 -7.756649870389579e-14 -1.190916263225130e-11
-6.776842323156934e-06 -5.995009302407683e-06 -6.169333166085232e-04
1.789289349155309e-06 -3.997930548540037e-06 -7.260797550816558e-04
8.622492034504008e-12 -4.384562544144759e-12 -8.320132485976105e-10
4.675809572913553e-07 -5.983898601897924e-06 -7.157661608318005e-04
3.826790593587349e-12 -4.187155614332735e-12 -5.675474334055535e-10
-5.273107373500215e-13 4.697351493514028e-14 -9.772897199867082e-11
-5.773116945234918e-04 2.419690734352147e-04 -4.338308495940309e-03
-7.018926364060106e-04 6.274060510187366e-05 -2.519264221981072e-03
-6.421276629640922e-06 2.109279495637494e-07 -7.183853252687605e-04
-2.987500595931817e-12 1.572781512575703e-12 -3.903048359290909e-10
-3.714855060050905e-04 1.528207495158072e-04 -5.767968501291947e-03
-4.580317097336213e-04 5.975036812491215e-05 -4.953448422744111e-03
-5.995009302408530e-06 -6.776842323157318e-06 -6.169333166085025e-04
4.697351493508079e-14 -5.273107373500277e-13 -9.772897199866235e-11
-1.317305554447657e-04 7.255857401879026e-05 -8.356741068694626e-03
-1.549208350425420e-04 4.364632456918700e-05 -8.639723614861761e-03
-5.072745538565967e-06 -5.072745538565100e-06 -6.758326726509529e-04
-5.259419882871863e-13 -5.259419882870937e-13 -1.686537871012627e-10
-5.377283044789960e-06 -1.056875912842063e-06 -7.194803133340668e-04
-1.670954727156101e-12 5.950701758863273e-14 -2.550198135174226e-10
2.109279495625346e-07 -6.421276629640946e-06 -7.183853252687579e-04
1.572781512575651e-12 -2.987500595931561e-12 -3.903048359290794e-10
-1.056875912842868e-06 -5.377283044789326e-06 -7.194803133340759e-04
5.950701758872784e-14 -1.670954727156136e-12 -2.550198135174538e-10
1.549208350424938e-04 -4.364632456920353e-05 -8.639723614862279e-03
1.317305554447741e-04 -7.255857401880340e-05 -8.356741068694898e-03
-3.688887295090063e-06 -3.688887295089208e-06 -7.105319255241876e-04
4.580317097336508e-04 -5.975036812492343e-05 -4.953448422742829e-03
3.714855060050932e-04 -1.528207495157878e-04 -5.767968501292084e-03
7.018926364060157e-04 -6.274060510187060e-05 -2.519264221981147e-03
5.773116945235121e-04 -2.419690734351976e-04 -4.338308495939633e-03
-7.461838713813397e-13 -7.461838713813917e-13 -1.551678390549189e-10
1.170351388657434e-06 -2.883146100940588e-05 -4.380150336254674e-04
-0.000000000000000e+00 -0.000000000000000e+00 -0.000000000000000e+00
-1.925823009384277e-06 -8.871838170402403e-06 -4.796904218933443e-04
-7.018926364060179e-04 -6.274060510187724e-05 -2.519264221980866e-03
-5.773116945234970e-04 -2.419690734352187e-04 -4.338308495939879e-03
-3.997930548538294e-06 -1.789289349155330e-06 -7.260797550816197e-04
-4.384562544143934e-12 -8.622492034504200e-12 -8.320132485975874e-10
-1.925823009383380e-06 8.871838170401678e-06 -4.796904218933445e-04
-3.588152684677022e-14 -9.299098022945103e-14 -1.974570753301725e-11