<?xml version="1.0" ?> 
<!-- 
# vtk DataFile Version 3.0
-->
<VTKFile type="UnstructuredGrid" version="0.1" compressor="vtkZLibDataCompressor" byte_order="LittleEndian">
  <UnstructuredGrid>
    <FieldData>
      <DataArray type="Float64" Name="TIME" NumberOfTuples="1" format="ascii">
1.875000000000001e-01 
      </DataArray>
    </FieldData>

    <Piece NumberOfPoints="80" NumberOfCells="0" >
      <Points>
        <DataArray type="Float64" NumberOfComponents="3" format="ascii">
-1.500000000000001e-01 -1.500000000000001e-01 1.019237038349982e+00
-1.500000000000001e-01 -5.000000000000010e-02 1.019237038349982e+00
-1.500000000000001e-01 4.999999999999988e-02 1.019237038349982e+00
-1.500000000000001e-01 1.500000000000000e-01 1.019237038349982e+00
-5.000000000000009e-02 -1.500000000000001e-01 1.019237038349982e+00
-5.000000000000009e-02 -5.000000000000010e-02 1.019237038349982e+00
-5.000000000000009e-02 4.999999999999988e-02 1.019237038349982e+00
-5.000000000000009e-02 1.500000000000000e-01 1.019237038349982e+00
4.999999999999989e-02 -1.500000000000001e-01 1.019237038349982e+00
4.999999999999989e-02 -5.000000000000010e-02 1.019237038349982e+00
4.999999999999989e-02 4.999999999999988e-02 1.019237038349982e+00
4.999999999999989e-02 1.500000000000000e-01 1.019237038349982e+00
1.500000000000000e-01 -1.500000000000001e-01 1.019237038349982e+00
1.500000000000000e-01 -5.000000000000010e-02 1.019237038349982e+00
1.500000000000000e-01 4.999999999999988e-02 1.019237038349982e+00
1.500000000000000e-01 1.500000000000000e-01 1.019237038349982e+00
-1.500000000000001e-01 -1.500000000000001e-01 1.119237038349982e+00
-1.500000000000001e-01 -1.500000000000001e-01 1.219237038349982e+00
-1.500000000000001e-01 -1.500000000000001e-01 1.319237038349982e+00
-1.500000000000001e-01 -1.500000000000001e-01 1.419237038349982e+00
-1.500000000000001e-01 -5.000000000000010e-02 1.119237038349982e+00
-1.500000000000001e-01 -5.000000000000010e-02 1.219237038349982e+00
-1.500000000000001e-01 -5.000000000000010e-02 1.319237038349982e+00
-1.500000000000001e-01 -5.000000000000010e-02 1.419237038349982e+00
-1.500000000000001e-01 4.999999999999988e-02 1.119237038349982e+00
-1.500000000000001e-01 4.999999999999988e-02 1.219237038349982e+00
-1.500000000000001e-01 4.999999999999988e-02 1.319237038349982e+00
-1.500000000000001e-01 4.999999999999988e-02 1.419237038349982e+00
-1.500000000000001e-01 1.500000000000000e-01 1.119237038349982e+00
-1.500000000000001e-01 1.500000000000000e-01 1.219237038349982e+00
-1.500000000000001e-01 1.500000000000000e-01 1.319237038349982e+00
-1.500000000000001e-01 1.500000000000000e-01 1.419237038349982e+00
-5.000000000000009e-02 -1.500000000000001e-01 1.119237038349982e+00
-5.000000000000009e-02 -1.500000000000001e-01 1.219237038349982e+00
-5.000000000000009e-02 -1.500000000000001e-01 1.319237038349982e+00
-5.000000000000009e-02 -1.500000000000001e-01 1.419237038349982e+00
-5.000000000000009e-02 -5.000000000000010e-02 1.119237038349982e+00
-5.000000000000009e-02 -5.000000000000010e-02 1.219237038349982e+00
-5.000000000000009e-02 -5.000000000000010e-02 1.319237038349982e+00
-5.000000000000009e-02 -5.000000000000010e-02 1.419237038349982e+00
-5.000000000000009e-02 4.999999999999988e-02 1.119237038349982e+00
-5.000000000000009e-02 4.999999999999988e-02 1.219237038349982e+00
-5.000000000000009e-02 4.999999999999988e-02 1.319237038349982e+00
-5.000000000000009e-02 4.999999999999988e-02 1.419237038349982e+00
-5.000000000000009e-02 1.500000000000000e-01 1.119237038349982e+00
-5.000000000000009e-02 1.500000000000000e-01 1.219237038349982e+00
-5.000000000000009e-02 1.500000000000000e-01 1.319237038349982e+00
-5.000000000000009e-02 1.500000000000000e-01 1.419237038349982e+00
4.999999999999989e-02 -1.500000000000001e-01 1.119237038349982e+00
4.999999999999989e-02 -1.500000000000001e-01 1.219237038349982e+00
4.999999999999989e-02 -1.500000000000001e-01 1.319237038349982e+00
4.999999999999989e-02 -1.500000000000001e-01 1.419237038349982e+00
4.999999999999989e-02 -5.000000000000010e-02 1.119237038349982e+00
4.999999999999989e-02 -5.000000000000010e-02 1.219237038349982e+00
4.999999999999989e-02 -5.000000000000010e-02 1.319237038349982e+00
4.999999999999989e-02 -5.000000000000010e-02 1.419237038349982e+00
4.999999999999989e-02 4.999999999999988e-02 1.119237038349982e+00
4.999999999999989e-02 4.999999999999988e-02 1.219237038349982e+00
4.999999999999989e-02 4.999999999999988e-02 1.319237038349982e+00
4.999999999999989e-02 4.999999999999988e-02 1.419237038349982e+00
4.999999999999989e-02 1.500000000000000e-01 1.119237038349982e+00
4.999999999999989e-02 1.500000000000000e-01 1.219237038349982e+00
4.999999999999989e-02 1.500000000000000e-01 1.319237038349982e+00
4.999999999999989e-02 1.500000000000000e-01 1.419237038349982e+00
1.500000000000000e-01 -1.500000000000001e-01 1.119237038349982e+00
1.500000000000000e-01 -1.500000000000001e-01 1.219237038349982e+00
1.500000000000000e-01 -1.500000000000001e-01 1.319237038349982e+00
1.500000000000000e-01 -1.500000000000001e-01 1.419237038349982e+00
1.500000000000000e-01 -5.000000000000010e-02 1.119237038349982e+00
1.500000000000000e-01 -5.000000000000010e-02 1.219237038349982e+00
1.500000000000000e-01 -5.000000000000010e-02 1.319237038349982e+00
1.500000000000000e-01 -5.000000000000010e-02 1.419237038349982e+00
1.500000000000000e-01 4.999999999999988e-02 1.119237038349982e+00
1.500000000000000e-01 4.999999999999988e-02 1.219237038349982e+00
1.500000000000000e-01 4.999999999999988e-02 1.319237038349982e+00
1.500000000000000e-01 4.999999999999988e-02 1.419237038349982e+00
1.500000000000000e-01 1.500000000000000e-01 1.119237038349982e+00
1.500000000000000e-01 1.500000000000000e-01 1.219237038349982e+00
1.500000000000000e-01 1.500000000000000e-01 1.319237038349982e+00
1.500000000000000e-01 1.500000000000000e-01 1.419237038349982e+00
        </DataArray>
      </Points>

      <Cells>
        <DataArray type="Int32" Name="connectivity" format="ascii">

        </DataArray>
        <DataArray type="Int32" Name="offsets" format="ascii">

        </DataArray>
        <DataArray type="UInt8" Name="types" format="ascii">

        </DataArray>
      </Cells>

  <PointData>
        <DataArray type="Float64" Name="acceleration" NumberOfComponents="3" format="ascii">
5.343088698931176e-15 -1.559823038210203e-14 6.429453608170318e-01
5.452880180424116e-15 -1.559823038210203e-14 6.429453608169996e-01
5.562671661917063e-15 -1.559823038210203e-14 6.429453608169675e-01
5.672463143410004e-15 -1.559823038210204e-14 6.429453608169353e-01
5.343088698931176e-15 -1.570802186359498e-14 6.429453608170140e-01
5.452880180424116e-15 -1.570802186359498e-14 6.429453608169818e-01
5.562671661917063e-15 -1.570802186359498e-14 6.429453608169496e-01
5.672463143410003e-15 -1.570802186359498e-14 6.429453608169176e-01
5.343088698931176e-15 -1.581781334508791e-14 6.429453608169962e-01
5.452880180424116e-15 -1.581781334508791e-14 6.429453608169641e-01
5.562671661917063e-15 -1.581781334508791e-14 6.429453608169319e-01
5.672463143410003e-15 -1.581781334508792e-14 6.429453608168997e-01
5.343088698931176e-15 -1.592760482658086e-14 6.429453608169784e-01
5.452880180424116e-15 -1.592760482658086e-14 6.429453608169462e-01
5.562671661917062e-15 -1.592760482658086e-14 6.429453608169141e-01
5.672463143410002e-15 -1.592760482658086e-14 6.429453608168819e-01
2.313212140151494e-14 1.655580455658787e-14 6.429453608170318e-01
4.092115410409875e-14 4.870983949527784e-14 6.429453608170318e-01
5.871018680668255e-14 8.086387443396783e-14 6.429453608170318e-01
7.649921950926631e-14 1.130179093726577e-13 6.429453608170318e-01
2.324191288300789e-14 1.655580455658787e-14 6.429453608169996e-01
4.103094558559169e-14 4.870983949527784e-14 6.429453608169996e-01
5.881997828817550e-14 8.086387443396783e-14 6.429453608169996e-01
7.660901099075925e-14 1.130179093726577e-13 6.429453608169996e-01
2.335170436450083e-14 1.655580455658787e-14 6.429453608169675e-01
4.114073706708463e-14 4.870983949527784e-14 6.429453608169675e-01
5.892976976966843e-14 8.086387443396783e-14 6.429453608169675e-01
7.671880247225220e-14 1.130179093726577e-13 6.429453608169675e-01
2.346149584599377e-14 1.655580455658786e-14 6.429453608169353e-01
4.125052854857757e-14 4.870983949527784e-14 6.429453608169353e-01
5.903956125116138e-14 8.086387443396783e-14 6.429453608169353e-01
7.682859395374513e-14 1.130179093726577e-13 6.429453608169353e-01
2.313212140151494e-14 1.644601307509493e-14 6.429453608170140e-01
4.092115410409875e-14 4.860004801378490e-14 6.429453608170140e-01
5.871018680668255e-14 8.075408295247488e-14 6.429453608170140e-01
7.649921950926631e-14 1.129081178911648e-13 6.429453608170140e-01
2.324191288300789e-14 1.644601307509493e-14 6.429453608169818e-01
4.103094558559169e-14 4.860004801378490e-14 6.429453608169818e-01
5.881997828817550e-14 8.075408295247488e-14 6.429453608169818e-01
7.660901099075925e-14 1.129081178911648e-13 6.429453608169818e-01
2.335170436450083e-14 1.644601307509493e-14 6.429453608169496e-01
4.114073706708463e-14 4.860004801378490e-14 6.429453608169496e-01
5.892976976966843e-14 8.075408295247488e-14 6.429453608169496e-01
7.671880247225220e-14 1.129081178911648e-13 6.429453608169496e-01
2.346149584599377e-14 1.644601307509492e-14 6.429453608169176e-01
4.125052854857757e-14 4.860004801378490e-14 6.429453608169176e-01
5.903956125116138e-14 8.075408295247488e-14 6.429453608169176e-01
7.682859395374513e-14 1.129081178911648e-13 6.429453608169176e-01
2.313212140151494e-14 1.633622159360198e-14 6.429453608169962e-01
4.092115410409875e-14 4.849025653229196e-14 6.429453608169962e-01
5.871018680668255e-14 8.064429147098193e-14 6.429453608169962e-01
7.649921950926631e-14 1.127983264096718e-13 6.429453608169962e-01
2.324191288300789e-14 1.633622159360198e-14 6.429453608169641e-01
4.103094558559169e-14 4.849025653229196e-14 6.429453608169641e-01
5.881997828817550e-14 8.064429147098193e-14 6.429453608169641e-01
7.660901099075925e-14 1.127983264096718e-13 6.429453608169641e-01
2.335170436450083e-14 1.633622159360198e-14 6.429453608169319e-01
4.114073706708463e-14 4.849025653229196e-14 6.429453608169319e-01
5.892976976966843e-14 8.064429147098193e-14 6.429453608169319e-01
7.671880247225220e-14 1.127983264096718e-13 6.429453608169319e-01
2.346149584599377e-14 1.633622159360198e-14 6.429453608168997e-01
4.125052854857757e-14 4.849025653229196e-14 6.429453608168997e-01
5.903956125116138e-14 8.064429147098193e-14 6.429453608168997e-01
7.682859395374513e-14 1.127983264096718e-13 6.429453608168997e-01
2.313212140151494e-14 1.622643011210904e-14 6.429453608169784e-01
4.092115410409875e-14 4.838046505079902e-14 6.429453608169784e-01
5.871018680668255e-14 8.053449998948900e-14 6.429453608169784e-01
7.649921950926631e-14 1.126885349281789e-13 6.429453608169784e-01
2.324191288300789e-14 1.622643011210904e-14 6.429453608169462e-01
4.103094558559169e-14 4.838046505079902e-14 6.429453608169462e-01
5.881997828817550e-14 8.053449998948900e-14 6.429453608169462e-01
7.660901099075925e-14 1.126885349281789e-13 6.429453608169462e-01
2.335170436450083e-14 1.622643011210904e-14 6.429453608169141e-01
4.114073706708463e-14 4.838046505079902e-14 6.429453608169141e-01
5.892976976966843e-14 8.053449998948900e-14 6.429453608169141e-01
7.671880247225220e-14 1.126885349281789e-13 6.429453608169141e-01
2.346149584599377e-14 1.622643011210904e-14 6.429453608168819e-01
4.125052854857757e-14 4.838046505079902e-14 6.429453608168819e-01
5.903956125116138e-14 8.053449998948900e-14 6.429453608168819e-01
7.682859395374513e-14 1.126885349281789e-13 6.429453608168819e-01
        </DataArray>
        <DataArray type="Float64" Name="body frame relative position" NumberOfComponents="3" format="ascii">
-1.500000000000000e-01 -1.500000000000000e-01 -2.000000000000000e-01
-1.500000000000000e-01 -5.000000000000002e-02 -2.000000000000000e-01
-1.500000000000000e-01 4.999999999999996e-02 -2.000000000000000e-01
-1.500000000000000e-01 1.500000000000001e-01 -2.000000000000000e-01
-5.000000000000002e-02 -1.500000000000000e-01 -2.000000000000000e-01
-5.000000000000002e-02 -5.000000000000002e-02 -2.000000000000000e-01
-5.000000000000002e-02 4.999999999999996e-02 -2.000000000000000e-01
-5.000000000000002e-02 1.500000000000001e-01 -2.000000000000000e-01
4.999999999999995e-02 -1.500000000000000e-01 -2.000000000000000e-01
4.999999999999995e-02 -5.000000000000002e-02 -2.000000000000000e-01
4.999999999999995e-02 4.999999999999996e-02 -2.000000000000000e-01
4.999999999999995e-02 1.500000000000001e-01 -2.000000000000000e-01
1.500000000000001e-01 -1.500000000000000e-01 -2.000000000000000e-01
1.500000000000001e-01 -5.000000000000002e-02 -2.000000000000000e-01
1.500000000000001e-01 4.999999999999996e-02 -2.000000000000000e-01
1.500000000000001e-01 1.500000000000001e-01 -2.000000000000000e-01
-1.500000000000000e-01 -1.500000000000000e-01 -1.000000000000001e-01
-1.500000000000000e-01 -1.500000000000000e-01 0.000000000000000e+00
-1.500000000000000e-01 -1.500000000000000e-01 1.000000000000001e-01
-1.500000000000000e-01 -1.500000000000000e-01 2.000000000000000e-01
-1.500000000000000e-01 -5.000000000000002e-02 -1.000000000000001e-01
-1.500000000000000e-01 -5.000000000000002e-02 0.000000000000000e+00
-1.500000000000000e-01 -5.000000000000002e-02 1.000000000000001e-01
-1.500000000000000e-01 -5.000000000000002e-02 2.000000000000000e-01
-1.500000000000000e-01 4.999999999999996e-02 -1.000000000000001e-01
-1.500000000000000e-01 4.999999999999996e-02 0.000000000000000e+00
-1.500000000000000e-01 4.999999999999996e-02 1.000000000000001e-01
-1.500000000000000e-01 4.999999999999996e-02 2.000000000000000e-01
-1.500000000000000e-01 1.500000000000001e-01 -1.000000000000001e-01
-1.500000000000000e-01 1.500000000000001e-01 0.000000000000000e+00
-1.500000000000000e-01 1.500000000000001e-01 1.000000000000001e-01
-1.500000000000000e-01 1.500000000000001e-01 2.000000000000000e-01
-5.000000000000002e-02 -1.500000000000000e-01 -1.000000000000001e-01
-5.000000000000002e-02 -1.500000000000000e-01 0.000000000000000e+00
-5.000000000000002e-02 -1.500000000000000e-01 1.000000000000001e-01
-5.000000000000002e-02 -1.500000000000000e-01 2.000000000000000e-01
-5.000000000000002e-02 -5.000000000000002e-02 -1.000000000000001e-01
-5.000000000000002e-02 -5.000000000000002e-02 0.000000000000000e+00
-5.000000000000002e-02 -5.000000000000002e-02 1.000000000000001e-01
-5.000000000000002e-02 -5.000000000000002e-02 2.000000000000000e-01
-5.000000000000002e-02 4.999999999999996e-02 -1.000000000000001e-01
-5.000000000000002e-02 4.999999999999996e-02 0.000000000000000e+00
-5.000000000000002e-02 4.999999999999996e-02 1.000000000000001e-01
-5.000000000000002e-02 4.999999999999996e-02 2.000000000000000e-01
-5.000000000000002e-02 1.500000000000001e-01 -1.000000000000001e-01
-5.000000000000002e-02 1.500000000000001e-01 0.000000000000000e+00
-5.000000000000002e-02 1.500000000000001e-01 1.000000000000001e-01
-5.000000000000002e-02 1.500000000000001e-01 2.000000000000000e-01
4.999999999999995e-02 -1.500000000000000e-01 -1.000000000000001e-01
4.999999999999995e-02 -1.500000000000000e-01 0.000000000000000e+00
4.999999999999995e-02 -1.500000000000000e-01 1.000000000000001e-01
4.999999999999995e-02 -1.500000000000000e-01 2.000000000000000e-01
4.999999999999995e-02 -5.000000000000002e-02 -1.000000000000001e-01
4.999999999999995e-02 -5.000000000000002e-02 0.000000000000000e+00
4.999999999999995e-02 -5.000000000000002e-02 1.000000000000001e-01
4.999999999999995e-02 -5.000000000000002e-02 2.000000000000000e-01
4.999999999999995e-02 4.999999999999996e-02 -1.000000000000001e-01
4.999999999999995e-02 4.999999999999996e-02 0.000000000000000e+00
4.999999999999995e-02 4.999999999999996e-02 1.000000000000001e-01
4.999999999999995e-02 4.999999999999996e-02 2.000000000000000e-01
4.999999999999995e-02 1.500000000000001e-01 -1.000000000000001e-01
4.999999999999995e-02 1.500000000000001e-01 0.000000000000000e+00
4.999999999999995e-02 1.500000000000001e-01 1.000000000000001e-01
4.999999999999995e-02 1.500000000000001e-01 2.000000000000000e-01
1.500000000000001e-01 -1.500000000000000e-01 -1.000000000000001e-01
1.500000000000001e-01 -1.500000000000000e-01 0.000000000000000e+00
1.500000000000001e-01 -1.500000000000000e-01 1.000000000000001e-01
1.500000000000001e-01 -1.500000000000000e-01 2.000000000000000e-01
1.500000000000001e-01 -5.000000000000002e-02 -1.000000000000001e-01
1.500000000000001e-01 -5.000000000000002e-02 0.000000000000000e+00
1.500000000000001e-01 -5.000000000000002e-02 1.000000000000001e-01
1.500000000000001e-01 -5.000000000000002e-02 2.000000000000000e-01
1.500000000000001e-01 4.999999999999996e-02 -1.000000000000001e-01
1.500000000000001e-01 4.999999999999996e-02 0.000000000000000e+00
1.500000000000001e-01 4.999999999999996e-02 1.000000000000001e-01
1.500000000000001e-01 4.999999999999996e-02 2.000000000000000e-01
1.500000000000001e-01 1.500000000000001e-01 -1.000000000000001e-01
1.500000000000001e-01 1.500000000000001e-01 0.000000000000000e+00
1.500000000000001e-01 1.500000000000001e-01 1.000000000000001e-01
1.500000000000001e-01 1.500000000000001e-01 2.000000000000000e-01
        </DataArray>
        <DataArray type="Float64" Name="boundary pressure" format="ascii">
0.000000000000000e+00
0.000000000000000e+00
0.000000000000000e+00
0.000000000000000e+00
0.000000000000000e+00
0.000000000000000e+00
0.000000000000000e+00
0.000000000000000e+00
0.000000000000000e+00
0.000000000000000e+00
0.000000000000000e+00
0.000000000000000e+00
0.000000000000000e+00
0.000000000000000e+00
0.000000000000000e+00
0.000000000000000e+00
0.000000000000000e+00
0.000000000000000e+00
0.000000000000000e+00
0.000000000000000e+00
0.000000000000000e+00
0.000000000000000e+00
0.000000000000000e+00
0.000000000000000e+00
0.000000000000000e+00
0.000000000000000e+00
0.000000000000000e+00
0.000000000000000e+00
0.000000000000000e+00
0.000000000000000e+00
0.000000000000000e+00
0.000000000000000e+00
0.000000000000000e+00
0.000000000000000e+00
0.000000000000000e+00
0.000000000000000e+00
0.000000000000000e+00
0.000000000000000e+00
0.000000000000000e+00
0.000000000000000e+00
0.000000000000000e+00
0.000000000000000e+00
0.000000000000000e+00
0.000000000000000e+00
0.000000000000000e+00
0.000000000000000e+00
0.000000000000000e+00
0.000000000000000e+00
0.000000000000000e+00
0.000000000000000e+00
0.000000000000000e+00
0.000000000000000e+00
0.000000000000000e+00
0.000000000000000e+00
0.000000000000000e+00
0.000000000000000e+00
0.000000000000000e+00
0.000000000000000e+00
0.000000000000000e+00
0.000000000000000e+00
0.000000000000000e+00
0.000000000000000e+00
0.000000000000000e+00
0.000000000000000e+00
0.000000000000000e+00
0.000000000000000e+00
0.000000000000000e+00
0.000000000000000e+00
0.000000000000000e+00
0.000000000000000e+00
0.000000000000000e+00
0.000000000000000e+00
0.000000000000000e+00
0.000000000000000e+00
0.000000000000000e+00
0.000000000000000e+00
0.000000000000000e+00
0.000000000000000e+00
0.000000000000000e+00
0.000000000000000e+00
        </DataArray>
        <DataArray type="Float64" Name="boundary velocity" NumberOfComponents="3" format="ascii">
0.000000000000000e+00 0.000000000000000e+00 0.000000000000000e+00
0.000000000000000e+00 0.000000000000000e+00 0.000000000000000e+00
0.000000000000000e+00 0.000000000000000e+00 0.000000000000000e+00
0.000000000000000e+00 0.000000000000000e+00 0.000000000000000e+00
0.000000000000000e+00 0.000000000000000e+00 0.000000000000000e+00
0.000000000000000e+00 0.000000000000000e+00 0.000000000000000e+00
0.000000000000000e+00 0.000000000000000e+00 0.000000000000000e+00
0.000000000000000e+00 0.000000000000000e+00 0.000000000000000e+00
0.000000000000000e+00 0.000000000000000e+00 0.000000000000000e+00
0.000000000000000e+00 0.000000000000000e+00 0.000000000000000e+00
0.000000000000000e+00 0.000000000000000e+00 0.000000000000000e+00
0.000000000000000e+00 0.000000000000000e+00 0.000000000000000e+00
0.000000000000000e+00 0.000000000000000e+00 0.000000000000000e+00
0.000000000000000e+00 0.000000000000000e+00 0.000000000000000e+00
0.000000000000000e+00 0.000000000000000e+00 0.000000000000000e+00
0.000000000000000e+00 0.000000000000000e+00 0.000000000000000e+00
0.000000000000000e+00 0.000000000000000e+00 0.000000000000000e+00
0.000000000000000e+00 0.000000000000000e+00 0.000000000000000e+00
0.000000000000000e+00 0.000000000000000e+00 0.000000000000000e+00
0.000000000000000e+00 0.000000000000000e+00 0.000000000000000e+00
0.000000000000000e+00 0.000000000000000e+00 0.000000000000000e+00
0.000000000000000e+00 0.000000000000000e+00 0.000000000000000e+00
0.000000000000000e+00 0.000000000000000e+00 0.000000000000000e+00
0.000000000000000e+00 0.000000000000000e+00 0.000000000000000e+00
0.000000000000000e+00 0.000000000000000e+00 0.000000000000000e+00
0.000000000000000e+00 0.000000000000000e+00 0.000000000000000e+00
0.000000000000000e+00 0.000000000000000e+00 0.000000000000000e+00
0.000000000000000e+00 0.000000000000000e+00 0.000000000000000e+00
0.000000000000000e+00 0.000000000000000e+00 0.000000000000000e+00
0.000000000000000e+00 0.000000000000000e+00 0.000000000000000e+00
0.000000000000000e+00 0.000000000000000e+00 0.000000000000000e+00
0.000000000000000e+00 0.000000000000000e+00 0.000000000000000e+00
0.000000000000000e+00 0.000000000000000e+00 0.000000000000000e+00
0.000000000000000e+00 0.000000000000000e+00 0.000000000000000e+00
0.000000000000000e+00 0.000000000000000e+00 0.000000000000000e+00
0.000000000000000e+00 0.000000000000000e+00 0.000000000000000e+00
0.000000000000000e+00 0.000000000000000e+00 0.000000000000000e+00
0.000000000000000e+00 0.000000000000000e+00 0.000000000000000e+00
0.000000000000000e+00 0.000000000000000e+00 0.000000000000000e+00
0.000000000000000e+00 0.000000000000000e+00 0.000000000000000e+00
0.000000000000000e+00 0.000000000000000e+00 0.000000000000000e+00
0.000000000000000e+00 0.000000000000000e+00 0.000000000000000e+00
0.000000000000000e+00 0.000000000000000e+00 0.000000000000000e+00
0.000000000000000e+00 0.000000000000000e+00 0.000000000000000e+00
0.000000000000000e+00 0.000000000000000e+00 0.000000000000000e+00
0.000000000000000e+00 0.000000000000000e+00 0.000000000000000e+00
0.000000000000000e+00 0.000000000000000e+00 0.000000000000000e+00
0.000000000000000e+00 0.000000000000000e+00 0.000000000000000e+00
0.000000000000000e+00 0.000000000000000e+00 0.000000000000000e+00
0.000000000000000e+00 0.000000000000000e+00 0.000000000000000e+00
0.000000000000000e+00 0.000000000000000e+00 0.000000000000000e+00
0.000000000000000e+00 0.000000000000000e+00 0.000000000000000e+00
0.000000000000000e+00 0.000000000000000e+00 0.000000000000000e+00
0.000000000000000e+00 0.000000000000000e+00 0.000000000000000e+00
0.000000000000000e+00 0.000000000000000e+00 0.000000000000000e+00
0.000000000000000e+00 0.000000000000000e+00 0.000000000000000e+00
0.000000000000000e+00 0.000000000000000e+00 0.000000000000000e+00
0.000000000000000e+00 0.000000000000000e+00 0.000000000000000e+00
0.000000000000000e+00 0.000000000000000e+00 0.000000000000000e+00
0.000000000000000e+00 0.000000000000000e+00 0.000000000000000e+00
0.000000000000000e+00 0.000000000000000e+00 0.000000000000000e+00
0.000000000000000e+00 0.000000000000000e+00 0.000000000000000e+00
0.000000000000000e+00 0.000000000000000e+00 0.000000000000000e+00
0.000000000000000e+00 0.000000000000000e+00 0.000000000000000e+00
0.000000000000000e+00 0.000000000000000e+00 0.000000000000000e+00
0.000000000000000e+00 0.000000000000000e+00 0.000000000000000e+00
0.000000000000000e+00 0.000000000000000e+00 0.000000000000000e+00
0.000000000000000e+00 0.000000000000000e+00 0.000000000000000e+00
0.000000000000000e+00 0.000000000000000e+00 0.000000000000000e+00
0.000000000000000e+00 0.000000000000000e+00 0.000000000000000e+00
0.000000000000000e+00 0.000000000000000e+00 0.000000000000000e+00
0.000000000000000e+00 0.000000000000000e+00 0.000000000000000e+00
0.000000000000000e+00 0.000000000000000e+00 0.000000000000000e+00
0.000000000000000e+00 0.000000000000000e+00 0.000000000000000e+00
0.000000000000000e+00 0.000000000000000e+00 0.000000000000000e+00
0.000000000000000e+00 0.000000000000000e+00 0.000000000000000e+00
0.000000000000000e+00 0.000000000000000e+00 0.000000000000000e+00
0.000000000000000e+00 0.000000000000000e+00 0.000000000000000e+00
0.000000000000000e+00 0.000000000000000e+00 0.000000000000000e+00
0.000000000000000e+00 0.000000000000000e+00 0.000000000000000e+00
        </DataArray>
        <DataArray type="Float64" Name="force" NumberOfComponents="3" format="ascii">
3.506787213601872e-03 3.506787213602172e-03 4.416436089876136e-02
2.518055690210476e-03 3.692138811062515e-04 2.431250252323255e-03
2.518055690210488e-03 -3.692138811062572e-04 2.431250252322123e-03
3.506787213601913e-03 -3.506787213601980e-03 4.416436089876025e-02
3.692138811064344e-04 2.518055690210832e-03 2.431250252324394e-03
1.707422147424705e-04 1.707422147423463e-04 -2.355705488646761e-04
1.707422147424803e-04 -1.707422147423364e-04 -2.355705488646758e-04
3.692138811064266e-04 -2.518055690210611e-03 2.431250252323304e-03
-3.692138811061832e-04 2.518055690210743e-03 2.431250252323213e-03
-1.707422147423182e-04 1.707422147423434e-04 -2.355705488646754e-04
-1.707422147423116e-04 -1.707422147423196e-04 -2.355705488646721e-04
-3.692138811060532e-04 -2.518055690210349e-03 2.431250252321035e-03
-3.506787213601674e-03 3.506787213601962e-03 4.416436089876028e-02
-2.518055690210457e-03 3.692138811062197e-04 2.431250252323278e-03
-2.518055690210299e-03 -3.692138811060903e-04 2.431250252321064e-03
-3.506787213601741e-03 -3.506787213601684e-03 4.416436089875918e-02
2.598592883522165e-03 2.598592883522462e-03 -4.989210415775618e-03
3.245488231210525e-03 3.245488231210872e-03 -3.556557378606937e-03
3.726880776566807e-03 3.726880776566966e-03 -2.533227314292418e-03
3.891087246120988e-03 3.891087246120921e-03 -2.805995449309330e-03
4.816416669452076e-03 7.139200670596370e-05 -3.271790048171000e-03
6.263566875956799e-03 -1.191770196105681e-05 -2.122543198349841e-03
6.912746924143482e-03 1.243835745447396e-05 -1.379115326025235e-03
6.439721869952101e-03 2.295935209298985e-04 -2.452111245229664e-03
4.816416669452133e-03 -7.139200670598815e-05 -3.271790048170974e-03
6.263566875956812e-03 1.191770196106471e-05 -2.122543198349815e-03
6.912746924143464e-03 -1.243835745444011e-05 -1.379115326025230e-03
6.439721869952107e-03 -2.295935209299159e-04 -2.452111245229705e-03
2.598592883522259e-03 -2.598592883522256e-03 -4.989210415775591e-03
3.245488231210643e-03 -3.245488231210646e-03 -3.556557378606909e-03
3.726880776566886e-03 -3.726880776566799e-03 -2.533227314292483e-03
3.891087246120951e-03 -3.891087246120963e-03 -2.805995449309459e-03
7.139200670608734e-05 4.816416669452408e-03 -3.271790048171002e-03
-1.191770196090269e-05 6.263566875957125e-03 -2.122543198349772e-03
1.243835745463334e-05 6.912746924143611e-03 -1.379115326025126e-03
2.295935209300018e-04 6.439721869952141e-03 -2.452111245229585e-03
4.199013628243190e-04 4.199013628241973e-04 -2.720377516619569e-04
5.399934738371109e-04 5.399934738369886e-04 -1.730405745663326e-04
6.106446627147153e-04 6.106446627145679e-04 -2.287602103454064e-04
7.072483877800606e-04 7.072483877798760e-04 -2.922434908092268e-03
4.199013628243255e-04 -4.199013628241791e-04 -2.720377516619547e-04
5.399934738371094e-04 -5.399934738369638e-04 -1.730405745663300e-04
6.106446627147096e-04 -6.106446627145445e-04 -2.287602103454066e-04
7.072483877800726e-04 -7.072483877798935e-04 -2.922434908092282e-03
7.139200670609087e-05 -4.816416669452197e-03 -3.271790048170996e-03
-1.191770196095649e-05 -6.263566875956875e-03 -2.122543198349760e-03
1.243835745460728e-05 -6.912746924143394e-03 -1.379115326025186e-03
2.295935209301103e-04 -6.439721869952090e-03 -2.452111245229730e-03
-7.139200670589303e-05 4.816416669452372e-03 -3.271790048170997e-03
1.191770196109749e-05 6.263566875957059e-03 -2.122543198349771e-03
-1.243835745449039e-05 6.912746924143630e-03 -1.379115326025206e-03
-2.295935209299936e-04 6.439721869952303e-03 -2.452111245229672e-03
-4.199013628241682e-04 4.199013628241960e-04 -2.720377516619577e-04
-5.399934738369619e-04 5.399934738369830e-04 -1.730405745663290e-04
-6.106446627145500e-04 6.106446627145732e-04 -2.287602103454085e-04
-7.072483877799108e-04 7.072483877799116e-04 -2.922434908092296e-03
-4.199013628241661e-04 -4.199013628241742e-04 -2.720377516619600e-04
-5.399934738369631e-04 -5.399934738369702e-04 -1.730405745663300e-04
-6.106446627145545e-04 -6.106446627145519e-04 -2.287602103454038e-04
-7.072483877799111e-04 -7.072483877798908e-04 -2.922434908092290e-03
-7.139200670591031e-05 -4.816416669452153e-03 -3.271790048171072e-03
1.191770196105143e-05 -6.263566875956937e-03 -2.122543198349780e-03
-1.243835745450080e-05 -6.912746924143441e-03 -1.379115326025160e-03
-2.295935209299659e-04 -6.439721869952100e-03 -2.452111245229721e-03
-2.598592883522142e-03 2.598592883522387e-03 -4.989210415775747e-03
-3.245488231210706e-03 3.245488231210857e-03 -3.556557378606971e-03
-3.726880776566954e-03 3.726880776567102e-03 -2.533227314292462e-03
-3.891087246121003e-03 3.891087246121141e-03 -2.805995449309405e-03
-4.816416669452092e-03 7.139200670594648e-05 -3.271790048171057e-03
-6.263566875956861e-03 -1.191770196104583e-05 -2.122543198349791e-03
-6.912746924143428e-03 1.243835745451625e-05 -1.379115326025190e-03
-6.439721869952088e-03 2.295935209299762e-04 -2.452111245229737e-03
-4.816416669452082e-03 -7.139200670594190e-05 -3.271790048171070e-03
-6.263566875956869e-03 1.191770196104603e-05 -2.122543198349801e-03
-6.912746924143450e-03 -1.243835745451587e-05 -1.379115326025193e-03
-6.439721869952088e-03 -2.295935209299634e-04 -2.452111245229721e-03
-2.598592883522236e-03 -2.598592883522267e-03 -4.989210415775830e-03
-3.245488231210733e-03 -3.245488231210775e-03 -3.556557378606931e-03
-3.726880776566976e-03 -3.726880776566932e-03 -2.533227314292445e-03
-3.891087246121026e-03 -3.891087246121036e-03 -2.805995449309443e-03
        </DataArray>
        <DataArray type="Int32" Name="globalid" format="ascii">
330
340
350
360
430
440
450