<?xml version="1.0" ?> 
<!-- 
# vtk DataFile Version 3.0
-->
<VTKFile type="UnstructuredGrid" version="0.1" compressor="vtkZLibDataCompressor" byte_order="LittleEndian">
  <UnstructuredGrid>
    <FieldData>
      <DataArray type="Float64" Name="TIME" NumberOfTuples="1" format="ascii">
6.250000000000001e-02 
      </DataArray>
    </FieldData>

    <Piece NumberOfPoints="420" NumberOfCells="0" >
      <Points>
        <DataArray type="Float64" NumberOfComponents="3" format="ascii">
-4.499885081267018e-01 -4.499885081267018e-01 1.049206176552091e+00
-4.499885914095266e-01 -3.499711931089648e-01 1.049208286105352e+00
-4.499805258022601e-01 -2.499577592664541e-01 1.049211001010943e+00
-4.499627733299058e-01 -1.499597610530983e-01 1.049214671624139e+00
-4.499500398475707e-01 -4.998296701246339e-02 1.049216689871332e+00
-4.499500398475707e-01 4.998296701246344e-02 1.049216689871332e+00
-4.499627733299058e-01 1.499597610530983e-01 1.049214671624139e+00
-4.499805258022601e-01 2.499577592664542e-01 1.049211001010943e+00
-4.499885914095266e-01 3.499711931089648e-01 1.049208286105352e+00
-4.499885081267018e-01 4.499885081267017e-01 1.049206176552091e+00
-3.499711931089648e-01 -4.499885914095266e-01 1.049208286105352e+00
-3.499666650511210e-01 -3.499666650511211e-01 1.049217642927264e+00
-3.499924137465159e-01 -2.499515825728742e-01 1.049233864735819e+00
-3.500197337990786e-01 -1.499471799874928e-01 1.049260443861096e+00
-3.500250551622128e-01 -4.997264671102645e-02 1.049280468422936e+00
-3.500250551622127e-01 4.997264671102650e-02 1.049280468422935e+00
-3.500197337990785e-01 1.499471799874928e-01 1.049260443861096e+00
-3.499924137465159e-01 2.499515825728743e-01 1.049233864735819e+00
-3.499666650511210e-01 3.499666650511211e-01 1.049217642927264e+00
-3.499711931089647e-01 4.499885914095266e-01 1.049208286105352e+00
-2.499577592664541e-01 -4.499805258022601e-01 1.049211001010943e+00
-2.499515825728742e-01 -3.499924137465159e-01 1.049233864735819e+00
-2.500049742556278e-01 -2.500049742556278e-01 1.049270716682475e+00
-2.498290801289089e-01 -1.499385993009786e-01 1.049391916680482e+00
-2.497335800327968e-01 -4.999736691912372e-02 1.049458587028621e+00
-2.497335800327968e-01 4.999736691912378e-02 1.049458587028621e+00
-2.498290801289089e-01 1.499385993009786e-01 1.049391916680482e+00
-2.500049742556278e-01 2.500049742556278e-01 1.049270716682475e+00
-2.499515825728742e-01 3.499924137465159e-01 1.049233864735819e+00
-2.499577592664541e-01 4.499805258022602e-01 1.049211001010943e+00
-1.499597610530982e-01 -4.499627733299058e-01 1.049214671624139e+00
-1.499471799874928e-01 -3.500197337990785e-01 1.049260443861096e+00
-1.499385993009786e-01 -2.498290801289089e-01 1.049391916680482e+00
-1.499385993009785e-01 2.498290801289089e-01 1.049391916680482e+00
-1.499471799874928e-01 3.500197337990786e-01 1.049260443861096e+00
-1.499597610530982e-01 4.499627733299058e-01 1.049214671624139e+00
-4.998296701246337e-02 -4.499500398475707e-01 1.049216689871332e+00
-4.997264671102642e-02 -3.500250551622126e-01 1.049280468422936e+00
-4.999736691912372e-02 -2.497335800327968e-01 1.049458587028621e+00
-4.999736691912371e-02 2.497335800327968e-01 1.049458587028621e+00
-4.997264671102644e-02 3.500250551622126e-01 1.049280468422936e+00
-4.998296701246339e-02 4.499500398475706e-01 1.049216689871332e+00
4.998296701246344e-02 -4.499500398475706e-01 1.049216689871332e+00
4.997264671102652e-02 -3.500250551622127e-01 1.049280468422935e+00
4.999736691912381e-02 -2.497335800327968e-01 1.049458587028621e+00
4.999736691912379e-02 2.497335800327968e-01 1.049458587028621e+00
4.997264671102648e-02 3.500250551622127e-01 1.049280468422936e+00
4.998296701246342e-02 4.499500398475706e-01 1.049216689871332e+00
1.499597610530983e-01 -4.499627733299058e-01 1.049214671624139e+00
1.499471799874929e-01 -3.500197337990786e-01 1.049260443861096e+00
1.499385993009786e-01 -2.498290801289089e-01 1.049391916680482e+00
1.499385993009786e-01 2.498290801289089e-01 1.049391916680482e+00
1.499471799874928e-01 3.500197337990785e-01 1.049260443861096e+00
1.499597610530983e-01 4.499627733299058e-01 1.049214671624139e+00
2.499577592664542e-01 -4.499805258022601e-01 1.049211001010943e+00
2.499515825728743e-01 -3.499924137465159e-01 1.049233864735819e+00
2.500049742556278e-01 -2.500049742556278e-01 1.049270716682475e+00
2.498290801289090e-01 -1.499385993009786e-01 1.049391916680482e+00
2.497335800327968e-01 -4.999736691912367e-02 1.049458587028621e+00
2.497335800327968e-01 4.999736691912377e-02 1.049458587028621e+00
2.498290801289089e-01 1.499385993009786e-01 1.049391916680482e+00
2.500049742556278e-01 2.500049742556278e-01 1.049270716682475e+00
2.499515825728743e-01 3.499924137465159e-01 1.049233864735819e+00
2.499577592664541e-01 4.499805258022601e-01 1.049211001010943e+00
3.499711931089648e-01 -4.499885914095265e-01 1.049208286105352e+00
3.499666650511211e-01 -3.499666650511210e-01 1.049217642927264e+00
3.499924137465159e-01 -2.499515825728742e-01 1.049233864735819e+00
3.500197337990786e-01 -1.499471799874928e-01 1.049260443861096e+00
3.500250551622127e-01 -4.997264671102646e-02 1.049280468422936e+00
3.500250551622126e-01 4.997264671102652e-02 1.049280468422936e+00
3.500197337990785e-01 1.499471799874928e-01 1.049260443861096e+00
3.499924137465160e-01 2.499515825728743e-01 1.049233864735819e+00
3.499666650511211e-01 3.499666650511211e-01 1.049217642927264e+00
3.499711931089647e-01 4.499885914095266e-01 1.049208286105352e+00
4.499885081267018e-01 -4.499885081267017e-01 1.049206176552091e+00
4.499885914095266e-01 -3.499711931089647e-01 1.049208286105352e+00
4.499805258022601e-01 -2.499577592664541e-01 1.049211001010943e+00
4.499627733299059e-01 -1.499597610530982e-01 1.049214671624139e+00
4.499500398475706e-01 -4.998296701246342e-02 1.049216689871332e+00
4.499500398475707e-01 4.998296701246346e-02 1.049216689871332e+00
4.499627733299058e-01 1.499597610530983e-01 1.049214671624139e+00
4.499805258022602e-01 2.499577592664541e-01 1.049211001010943e+00
4.499885914095266e-01 3.499711931089648e-01 1.049208286105352e+00
4.499885081267018e-01 4.499885081267018e-01 1.049206176552091e+00
-4.499839912792470e-01 -4.499839912792470e-01 1.149432478468156e+00
-4.499817640226632e-01 -4.499817640226632e-01 1.249533099180246e+00
-4.499810760262961e-01 -4.499810760262961e-01 1.349512022606193e+00
-4.499823488525759e-01 -4.499823488525759e-01 1.449254547867771e+00
-4.499789048308900e-01 -3.499562592308396e-01 1.149435303176447e+00
-4.499739600302872e-01 -3.499501763457626e-01 1.249535765554073e+00
-4.499719894368240e-01 -3.499483379085504e-01 1.349511482159604e+00
-4.499740515761032e-01 -3.499520047478165e-01 1.449250060589904e+00
-4.499620859897127e-01 -2.499354809240534e-01 1.149440537709514e+00
-4.499513799509512e-01 -2.499264971075356e-01 1.249540440811652e+00
-4.499479711919474e-01 -2.499245749132624e-01 1.349510115159773e+00
-4.499538826766820e-01 -2.499315213484086e-01 1.449241351964938e+00
-4.499296898918506e-01 -1.499387349347519e-01 1.149447604516734e+00
-4.499105089780807e-01 -1.499305684871443e-01 1.249545678922647e+00
-4.499065938527020e-01 -1.499294718552430e-01 1.349507159416820e+00
-4.499206883551341e-01 -1.499371026274337e-01 1.449228964322169e+00
-4.499045283990636e-01 -4.997554271345873e-02 1.149452056222929e+00
-4.498794416832342e-01 -4.997237799148160e-02 1.249548920508839e+00
-4.498755352842599e-01 -4.997199587577503e-02 1.349504698660727e+00
-4.498962896052288e-01 -4.997513377203838e-02 1.449220147742875e+00
-4.499045283990635e-01 4.997554271345880e-02 1.149452056222929e+00
-4.498794416832342e-01 4.997237799148159e-02 1.249548920508839e+00
-4.498755352842598e-01 4.997199587577503e-02 1.349504698660727e+00
-4.498962896052288e-01 4.997513377203837e-02 1.449220147742875e+00
-4.499296898918506e-01 1.499387349347519e-01 1.149447604516734e+00
-4.499105089780807e-01 1.499305684871443e-01 1.249545678922647e+00
-4.499065938527021e-01 1.499294718552430e-01 1.349507159416820e+00
-4.499206883551340e-01 1.499371026274337e-01 1.449228964322169e+00
-4.499620859897127e-01 2.499354809240534e-01 1.149440537709514e+00
-4.499513799509512e-01 2.499264971075355e-01 1.249540440811652e+00
-4.499479711919474e-01 2.499245749132625e-01 1.349510115159773e+00
-4.499538826766820e-01 2.499315213484087e-01 1.449241351964938e+00
-4.499789048308900e-01 3.499562592308397e-01 1.149435303176447e+00
-4.499739600302872e-01 3.499501763457626e-01 1.249535765554073e+00
-4.499719894368240e-01 3.499483379085505e-01 1.349511482159604e+00
-4.499740515761033e-01 3.499520047478166e-01 1.449250060589904e+00
-4.499839912792470e-01 4.499839912792470e-01 1.149432478468156e+00
-4.499817640226632e-01 4.499817640226632e-01 1.249533099180246e+00
-4.499810760262961e-01 4.499810760262961e-01 1.349512022606193e+00
-4.499823488525759e-01 4.499823488525762e-01 1.449254547867771e+00
-3.499562592308396e-01 -4.499789048308900e-01 1.149435303176447e+00
-3.499501763457626e-01 -4.499739600302872e-01 1.249535765554073e+00
-3.499483379085504e-01 -4.499719894368240e-01 1.349511482159604e+00
-3.499520047478165e-01 -4.499740515761033e-01 1.449250060589904e+00
-3.499452372038003e-01 -3.499452372038003e-01 1.149445932157271e+00
-3.499310986007219e-01 -3.499310986007219e-01 1.249543094034962e+00
-3.499259177621257e-01 -3.499259177621258e-01 1.349511842722507e+00
-3.499310297603117e-01 -3.499310297603117e-01 1.449242209737787e+00
-3.499767474804300e-01 -2.499190989545158e-01 1.149466110087703e+00
-3.499509677499240e-01 -2.498964395909293e-01 1.249556129289414e+00
-3.499390331070369e-01 -2.498911733501220e-01 1.349511921648676e+00
-3.499314308221762e-01 -2.499000440530454e-01 1.449232511207507e+00
-3.500006933974791e-01 -1.499110319386633e-01 1.149495609673419e+00
-3.499571207174884e-01 -1.498881708827400e-01 1.249572535799774e+00
-3.499351674976653e-01 -1.498850282814175e-01 1.349509026383847e+00
-3.499132510058388e-01 -1.498983898896339e-01 1.449215602122940e+00
-3.499939923959174e-01 -4.995267182501168e-02 1.149517499777589e+00
[...]
  <PointData>
        <DataArray type="Float64" Name="acceleration" NumberOfComponents="3" format="ascii">
-2.223929416228287e-02 -2.223929416243343e-02 -3.274675738553445e-01
-1.715592873424653e-02 -5.724595769414945e-02 -2.872578664421893e-01
1.150748233583090e-02 -6.755342183290292e-02 -2.501789917752812e-01
5.784546033994909e-02 -5.839925289859208e-02 -2.130558688953451e-01
9.217225760820039e-02 -2.588319941000803e-02 -1.741234530001984e-01
9.217225760823192e-02 2.588319940990953e-02 -1.741234530000808e-01
5.784546033996420e-02 5.839925289891634e-02 -2.130558688952822e-01
1.150748233568879e-02 6.755342183296539e-02 -2.501789917754294e-01
-1.715592873426074e-02 5.724595769403128e-02 -2.872578664423985e-01
-2.223929416224888e-02 2.223929416226265e-02 -3.274675738554718e-01
-5.724595769405856e-02 -1.715592873433115e-02 -2.872578664422036e-01
-3.091727188200179e-02 -3.091727188215451e-02 -3.421861597875099e-01
-1.218378857557590e-02 -3.369313211476609e-02 -3.940694384986208e-01
-3.895962007314645e-02 -3.269333903099901e-02 -4.386049108275158e-01
-5.607785614612146e-02 -1.249040633956675e-02 -4.847375143389355e-01
-5.607785614613701e-02 1.249040633942361e-02 -4.847375143388065e-01
-3.895962007323030e-02 3.269333903125614e-02 -4.386049108274962e-01
-1.218378857566667e-02 3.369313211474755e-02 -3.940694384987156e-01
-3.091727188219991e-02 3.091727188207141e-02 -3.421861597876031e-01
-5.724595769420948e-02 1.715592873431492e-02 -2.872578664423151e-01
-6.755342183302201e-02 1.150748233591484e-02 -2.501789917751687e-01
-3.369313211465312e-02 -1.218378857567166e-02 -3.940694384986079e-01
-1.026753195344061e-01 -1.026753195345086e-01 -5.218872726948978e-01
-1.983747657687666e-01 -1.110050106433613e-01 -6.194825341425604e-01
-2.298808541679952e-01 -3.042797578079637e-02 -7.323387624664759e-01
-2.298808541679003e-01 3.042797578068438e-02 -7.323387624663795e-01
-1.983747657687525e-01 1.110050106435388e-01 -6.194825341425774e-01
-1.026753195344145e-01 1.026753195345071e-01 -5.218872726950955e-01
-3.369313211466495e-02 1.218378857545476e-02 -3.940694384986828e-01
-6.755342183307776e-02 -1.150748233578055e-02 -2.501789917752306e-01
-5.839925289874445e-02 5.784546034018873e-02 -2.130558688951037e-01
-3.269333903125324e-02 -3.895962007320542e-02 -4.386049108274701e-01
-1.110050106435601e-01 -1.983747657688616e-01 -6.194825341425018e-01
-1.110050106436519e-01 1.983747657688751e-01 -6.194825341427703e-01
-3.269333903120049e-02 3.895962007304294e-02 -4.386049108276402e-01
-5.839925289867723e-02 -5.784546034007948e-02 -2.130558688952001e-01
-2.588319941000670e-02 9.217225760811965e-02 -1.741234529997904e-01
-1.249040633978770e-02 -5.607785614627009e-02 -4.847375143384698e-01
-3.042797578095129e-02 -2.298808541678756e-01 -7.323387624660390e-01
-3.042797578095311e-02 2.298808541679125e-01 -7.323387624664344e-01
-1.249040633973454e-02 5.607785614625049e-02 -4.847375143389265e-01
-2.588319940991820e-02 -9.217225760814532e-02 -1.741234530001187e-01
2.588319940998712e-02 9.217225760809396e-02 -1.741234529997342e-01
1.249040633980980e-02 -5.607785614620185e-02 -4.847375143384014e-01
3.042797578103819e-02 -2.298808541678774e-01 -7.323387624659998e-01
3.042797578093686e-02 2.298808541678444e-01 -7.323387624663094e-01
1.249040633963744e-02 5.607785614625127e-02 -4.847375143387148e-01
2.588319940994190e-02 -9.217225760811576e-02 -1.741234530000303e-01
5.839925289880062e-02 5.784546034009382e-02 -2.130558688950438e-01
3.269333903122384e-02 -3.895962007311784e-02 -4.386049108273988e-01
1.110050106434835e-01 -1.983747657688960e-01 -6.194825341424814e-01
1.110050106436427e-01 1.983747657687998e-01 -6.194825341425128e-01
3.269333903132819e-02 3.895962007314954e-02 -4.386049108273133e-01
5.839925289879759e-02 -5.784546034002562e-02 -2.130558688950436e-01
6.755342183313294e-02 1.150748233578984e-02 -2.501789917751944e-01
3.369313211467025e-02 -1.218378857572021e-02 -3.940694384985989e-01
1.026753195343044e-01 -1.026753195345646e-01 -5.218872726949524e-01
1.983747657687616e-01 -1.110050106435087e-01 -6.194825341426691e-01
2.298808541680655e-01 -3.042797578088354e-02 -7.323387624663746e-01
2.298808541679491e-01 3.042797578083694e-02 -7.323387624661983e-01
1.983747657687889e-01 1.110050106437241e-01 -6.194825341424421e-01
1.026753195345193e-01 1.026753195345571e-01 -5.218872726948636e-01
3.369313211474460e-02 1.218378857553837e-02 -3.940694384984354e-01
6.755342183308100e-02 -1.150748233578933e-02 -2.501789917750146e-01
5.724595769411518e-02 -1.715592873431367e-02 -2.872578664423697e-01
3.091727188212892e-02 -3.091727188234604e-02 -3.421861597876067e-01
1.218378857564994e-02 -3.369313211480542e-02 -3.940694384987112e-01
3.895962007332623e-02 -3.269333903094556e-02 -4.386049108277169e-01
5.607785614637113e-02 -1.249040633963740e-02 -4.847375143389956e-01
5.607785614625395e-02 1.249040633941649e-02 -4.847375143386895e-01
3.895962007323173e-02 3.269333903140315e-02 -4.386049108273410e-01
1.218378857564385e-02 3.369313211473402e-02 -3.940694384985227e-01
3.091727188199660e-02 3.091727188201707e-02 -3.421861597873469e-01
5.724595769404997e-02 1.715592873447320e-02 -2.872578664420415e-01
2.223929416207896e-02 -2.223929416234955e-02 -3.274675738554625e-01
1.715592873410782e-02 -5.724595769424974e-02 -2.872578664423044e-01
-1.150748233582453e-02 -6.755342183292744e-02 -2.501789917753622e-01
-5.784546034000694e-02 -5.839925289853674e-02 -2.130558688954862e-01
-9.217225760826593e-02 -2.588319941009675e-02 -1.741234530002396e-01
-9.217225760816411e-02 2.588319940984961e-02 -1.741234529999444e-01
-5.784546033994445e-02 5.839925289902850e-02 -2.130558688951396e-01
-1.150748233575565e-02 6.755342183291241e-02 -2.501789917752764e-01
1.715592873435157e-02 5.724595769394814e-02 -2.872578664421228e-01
2.223929416226010e-02 2.223929416242028e-02 -3.274675738551083e-01
-2.745672805651580e-02 -2.745672805649807e-02 -7.839995666249785e-01
-2.606341116262815e-02 -2.606341116255062e-02 -1.503920716185244e+00
-2.197064976142423e-02 -2.197064976143014e-02 -2.375447057851346e+00
-1.452725789626908e-02 -1.452725789629446e-02 -3.215663442615405e+00
-3.274467409399572e-02 -7.469693269766423e-02 -7.812316518015737e-01
-3.693789749964315e-02 -7.241673120453103e-02 -1.499276521090527e+00
-3.011703154221534e-02 -6.042644954436327e-02 -2.363668913022653e+00
-2.104158703815724e-02 -4.063816052139750e-02 -3.199605477901887e+00
-2.362301169646327e-03 -8.934389165174521e-02 -7.816680402924997e-01
-6.232892397682126e-03 -8.511118050410350e-02 -1.489969634684376e+00
1.206209040915385e-03 -6.798832743069178e-02 -2.343115927666054e+00
-9.723143874158999e-04 -4.470275384355032e-02 -3.174966800053306e+00
5.857362773857760e-02 -7.458341737685659e-02 -7.804678382185186e-01
6.196902559652449e-02 -6.853351167569743e-02 -1.477473495441822e+00
6.874694439287431e-02 -5.254206077745346e-02 -2.321256691152380e+00
4.602869159917999e-02 -3.322878372959777e-02 -3.152645086055309e+00
1.024313755701941e-01 -3.243028140088977e-02 -7.775535240656918e-01
1.108561195277583e-01 -2.971068526107459e-02 -1.468500184403039e+00
1.181053493449384e-01 -2.294528485915222e-02 -2.306375440310646e+00
8.107710712031195e-02 -1.460519541793142e-02 -3.138111342833870e+00
1.024313755701620e-01 3.243028140097898e-02 -7.775535240655745e-01
1.108561195277329e-01 2.971068526127833e-02 -1.468500184403009e+00
1.181053493449693e-01 2.294528485942152e-02 -2.306375440310511e+00
8.107710712033372e-02 1.460519541839155e-02 -3.138111342833789e+00
5.857362773846071e-02 7.458341737702294e-02 -7.804678382183674e-01
6.196902559636032e-02 6.853351167576135e-02 -1.477473495441816e+00
6.874694439283240e-02 5.254206077740344e-02 -2.321256691152330e+00
4.602869159927048e-02 3.322878372941037e-02 -3.152645086055161e+00
-2.362301169746075e-03 8.934389165159316e-02 -7.816680402926891e-01
-6.232892397795525e-03 8.511118050379919e-02 -1.489969634684396e+00
1.206209040819322e-03 6.798832743046331e-02 -2.343115927666075e+00
-9.723143873949102e-04 4.470275384321936e-02 -3.174966800053258e+00
-3.274467409395128e-02 7.469693269755137e-02 -7.812316518018130e-01
-3.693789749964373e-02 7.241673120455570e-02 -1.499276521090476e+00
-3.011703154222492e-02 6.042644954438012e-02 -2.363668913022714e+00
-2.104158703813734e-02 4.063816052135948e-02 -3.199605477901863e+00
-2.745672805649384e-02 2.745672805650699e-02 -7.839995666250584e-01
-2.606341116266079e-02 2.606341116256433e-02 -1.503920716185181e+00
-2.197064976148782e-02 2.197064976142134e-02 -2.375447057851411e+00
-1.452725789630191e-02 1.452725789638680e-02 -3.215663442615425e+00
-7.469693269757537e-02 -3.274467409398666e-02 -7.812316518017417e-01
-7.241673120451943e-02 -3.693789749957867e-02 -1.499276521090541e+00
-6.042644954441197e-02 -3.011703154219290e-02 -2.363668913022622e+00
-4.063816052143921e-02 -2.104158703817499e-02 -3.199605477901846e+00
-5.945874040232568e-02 -5.945874040239997e-02 -8.016377149032553e-01
-6.612743673869487e-02 -6.612743673864750e-02 -1.494356234712928e+00
-5.598876555355326e-02 -5.598876555349136e-02 -2.348226494386739e+00
-4.310891378746869e-02 -4.310891378740545e-02 -3.185919659367236e+00
-5.467583141106263e-02 -5.400853941613339e-02 -8.139703576216095e-01
-7.421223812649236e-02 -5.032235547691706e-02 -1.483019884396786e+00
-7.434343448352637e-02 -3.678804891764396e-02 -2.329419405242133e+00
-6.475139908275214e-02 -2.631480794600954e-02 -3.168932331355949e+00
-1.017647576672834e-01 -4.944350091812783e-02 -8.115147333260546e-01
-1.207943024570895e-01 -4.121312848356768e-02 -1.458747224235762e+00
-1.060062898364825e-01 -2.354535246444037e-02 -2.301006089192844e+00
-7.699878200816836e-02 -1.280547128608818e-02 -3.152022509301272e+00
-1.369936556302507e-01 -2.132930325613561e-02 -8.144957761272954e-01
-1.581084494297444e-01 -1.849508513116362e-02 -1.441705025417217e+00
-1.353946213004026e-01 -1.038051593586692e-02 -2.283901998841873e+00
-9.647352740413317e-02 -6.534314468509205e-03 -3.144554471666342e+00
-1.369936556302419e-01 2.132930325614979e-02 -8.144957761271495e-01
-1.581084494297111e-01 1.849508513132959e-02 -1.441705025417136e+00
-1.353946213004164e-01 1.038051593619010e-02 -2.283901998841791e+00
-9.647352740425993e-02 6.534314468960724e-03 -3.144554471666303e+00
-1.017647576673920e-01 4.944350091820698e-02 -8.115147333259739e-01
-1.207943024571690e-01 4.121312848350021e-02 -1.458747224235639e+00
-1.060062898364559e-01 2.354535246432797e-02 -2.301006089192683e+00
-7.699878200824035e-02 1.280547128599710e-02 -3.152022509301085e+00
-5.467583141114895e-02 5.400853941608642e-02 -8.139703576217303e-01
-7.421223812650939e-02 5.032235547681461e-02 -1.483019884396746e+00
-7.434343448347552e-02 3.678804891746535e-02 -2.329419405242107e+00
-6.475139908273944e-02 2.631480794563035e-02 -3.168932331355780e+00
-5.945874040236102e-02 5.945874040232575e-02 -8.016377149033179e-01
-6.612743673861626e-02 6.612743673865247e-02 -1.494356234712873e+00
-5.598876555352628e-02 5.598876555345284e-02 -2.348226494386822e+00
-4.310891378753057e-02 4.310891378733622e-02 -3.185919659367233e+00
-7.469693269760849e-02 3.274467409401061e-02 -7.812316518017586e-01
-7.241673120452502e-02 3.693789749957580e-02 -1.499276521090520e+00
-6.042644954444918e-02 3.011703154219308e-02 -2.363668913022673e+00
-4.063816052146891e-02 2.104158703827002e-02 -3.199605477901850e+00
-8.934389165180653e-02 -2.362301169647830e-03 -7.816680402925893e-01
-8.511118050410880e-02 -6.232892397697868e-03 -1.489969634684472e+00
-6.798832743083917e-02 1.206209040903549e-03 -2.343115927666145e+00
-4.470275384368228e-02 -9.723143874430333e-04 -3.174966800053134e+00
-5.400853941614728e-02 -5.467583141113837e-02 -8.139703576217371e-01
-5.032235547700869e-02 -7.421223812651681e-02 -1.483019884396847e+00
-3.678804891777181e-02 -7.434343448346581e-02 -2.329419405242187e+00
-2.631480794607102e-02 -6.475139908268922e-02 -3.168932331355780e+00
-1.459831156716598e-01 -1.459831156716306e-01 -8.078158889697526e-01
-1.042575212673267e-01 -1.042575212671957e-01 -1.428318818345635e+00
-5.095011295452059e-04 -5.095011294208834e-04 -2.223790578497765e+00
6.898896662618045e-02 6.898896662626229e-02 -3.101014889533983e+00
-2.129508802980024e-01 -1.530664356710144e-01 -7.228423485449700e-01
8.771238016216485e-03 -9.914011845913379e-02 -1.240894734069647e+00
4.213180616577334e-01 2.608370154072833e-02 -1.938530013991808e+00
5.962604861051879e-01 9.982174686608254e-02 -3.025298224238101e+00
-2.215614365609455e-01 -5.463807547404843e-02 -7.039446698700702e-01
8.314030066105904e-02 -5.596486606241657e-02 -1.162820391161589e+00
6.277188573943840e-01 -4.319383623214503e-02 -1.818907440474013e+00
8.330961389143565e-01 -3.041037457520432e-02 -2.995696876648883e+00
-2.215614365609195e-01 5.463807547406154e-02 -7.039446698699583e-01
8.314030066101571e-02 5.596486606254718e-02 -1.162820391161556e+00
6.277188573942748e-01 4.319383623234509e-02 -1.818907440474023e+00
8.330961389142234e-01 3.041037457539338e-02 -2.995696876648880e+00
-2.129508802980150e-01 1.530664356710101e-01 -7.228423485448946e-01
8.771238016189457e-03 9.914011845906315e-02 -1.240894734069509e+00
4.213180616575772e-01 -2.608370154074774e-02 -1.938530013991756e+00
5.962604861049265e-01 -9.982174686604559e-02 -3.025298224238052e+00
-1.459831156716662e-01 1.459831156716472e-01 -8.078158889698540e-01
-1.042575212672694e-01 1.042575212671596e-01 -1.428318818345552e+00
-5.095011296001473e-04 5.095011292323036e-04 -2.223790578497817e+00
6.898896662606009e-02 -6.898896662662665e-02 -3.101014889533886e+00
-5.400853941609376e-02 5.467583141107073e-02 -8.139703576216939e-01
-5.032235547698661e-02 7.421223812647762e-02 -1.483019884396855e+00
-3.678804891791743e-02 7.434343448333341e-02 -2.329419405242410e+00
-2.631480794625609e-02 6.475139908256008e-02 -3.168932331355804e+00
-8.934389165175959e-02 2.362301169659682e-03 -7.816680402925157e-01
-8.511118050410833e-02 6.232892397676220e-03 -1.489969634684531e+00
-6.798832743096656e-02 -1.206209040786225e-03 -2.343115927666238e+00
-4.470275384380568e-02 9.723143876956735e-04 -3.174966800053112e+00
-7.458341737697093e-02 5.857362773857799e-02 -7.804678382185261e-01
-6.853351167577780e-02 6.196902559647919e-02 -1.477473495441929e+00
-5.254206077746850e-02 6.874694439292076e-02 -2.321256691152519e+00
-3.322878372958774e-02 4.602869159927791e-02 -3.152645086054983e+00
-4.944350091823703e-02 -1.017647576673256e-01 -8.115147333262124e-01
-4.121312848361409e-02 -1.207943024571381e-01 -1.458747224235841e+00
-2.354535246451032e-02 -1.060062898364396e-01 -2.301006089192881e+00
-1.280547128608183e-02 -7.699878200811641e-02 -3.152022509300926e+00
-1.530664356711196e-01 -2.129508802979991e-01 -7.228423485450225e-01
-9.914011845923103e-02 8.771238016318170e-03 -1.240894734069656e+00
2.608370154058749e-02 4.213180616578669e-01 -1.938530013991797e+00
9.982174686599800e-02 5.962604861052325e-01 -3.025298224237968e+00
-1.530664356712735e-01 2.129508802979997e-01 -7.228423485450638e-01
-9.914011845935998e-02 -8.771238016350413e-03 -1.240894734069604e+00
2.608370154049218e-02 -4.213180616580042e-01 -1.938530013991876e+00
9.982174686600156e-02 -5.962604861054940e-01 -3.025298224237883e+00
-4.944350091833269e-02 1.017647576673594e-01 -8.115147333261793e-01
-4.121312848370299e-02 1.207943024570779e-01 -1.458747224235942e+00
-2.354535246455724e-02 1.060062898362077e-01 -2.301006089193121e+00
-1.280547128602158e-02 7.699878200788959e-02 -3.152022509300934e+00
-7.458341737697047e-02 -5.857362773861646e-02 -7.804678382184519e-01
-6.853351167581538e-02 -6.196902559647341e-02 -1.477473495442104e+00
-5.254206077753944e-02 -6.874694439263576e-02 -2.321256691152656e+00
-3.322878372960825e-02 -4.602869159888926e-02 -3.152645086054893e+00
-3.243028140083998e-02 1.024313755701821e-01 -7.775535240656086e-01
-2.971068526094253e-02 1.108561195277912e-01 -1.468500184403096e+00
-2.294528485904779e-02 1.181053493449616e-01 -2.306375440310734e+00
-1.460519541787753e-02 8.107710712039166e-02 -3.138111342833643e+00
-2.132930325612096e-02 -1.369936556303281e-01 -8.144957761271164e-01
-1.849508513107028e-02 -1.581084494298671e-01 -1.441705025417372e+00
-1.038051593590610e-02 -1.353946213005589e-01 -2.283901998841930e+00
-6.534314468499337e-03 -9.647352740418766e-02 -3.144554471665919e+00
-5.463807547405811e-02 -2.215614365609096e-01 -7.039446698699180e-01
-5.596486606244441e-02 8.314030066110806e-02 -1.162820391161722e+00
-4.319383623229155e-02 6.277188573945407e-01 -1.818907440474018e+00
-3.041037457523373e-02 8.330961389143722e-01 -2.995696876648602e+00
-5.463807547415742e-02 2.215614365608272e-01 -7.039446698700721e-01
-5.596486606261376e-02 -8.314030066115881e-02 -1.162820391161607e+00
-4.319383623232193e-02 -6.277188573946104e-01 -1.818907440473933e+00
-3.041037457516659e-02 -8.330961389145519e-01 -2.995696876648491e+00
-2.132930325621622e-02 1.369936556304535e-01 -8.144957761272468e-01
-1.849508513117401e-02 1.581084494299000e-01 -1.441705025417343e+00
-1.038051593584402e-02 1.353946213003740e-01 -2.283901998842009e+00
-6.534314468373544e-03 9.647352740396564e-02 -3.144554471665945e+00
-3.243028140087547e-02 -1.024313755701364e-01 -7.775535240656494e-01
-2.971068526096770e-02 -1.108561195277052e-01 -1.468500184403209e+00
-2.294528485895983e-02 -1.181053493447176e-01 -2.306375440310808e+00
-1.460519541778468e-02 -8.107710712012484e-02 -3.138111342833583e+00
3.243028140100403e-02 1.024313755702043e-01 -7.775535240654361e-01
2.971068526131904e-02 1.108561195277934e-01 -1.468500184403086e+00
2.294528485932235e-02 1.181053493449080e-01 -2.306375440310731e+00
1.460519541821014e-02 8.107710712038037e-02 -3.138111342833605e+00
2.132930325633629e-02 -1.369936556302882e-01 -8.144957761269641e-01
1.849508513143414e-02 -1.581084494298992e-01 -1.441705025417388e+00
1.038051593618074e-02 -1.353946213005877e-01 -2.283901998841923e+00
6.534314468851259e-03 -9.647352740424557e-02 -3.144554471665884e+00
5.463807547425362e-02 -2.215614365609688e-01 -7.039446698698697e-01
5.596486606263665e-02 8.314030066098362e-02 -1.162820391161781e+00
4.319383623239143e-02 6.277188573944228e-01 -1.818907440474033e+00
3.041037457539219e-02 8.330961389142568e-01 -2.995696876648544e+00
5.463807547431126e-02 2.215614365608963e-01 -7.039446698700230e-01
5.596486606268942e-02 -8.314030066103023e-02 -1.162820391161707e+00
4.319383623235494e-02 -6.277188573944813e-01 -1.818907440473877e+00
3.041037457533247e-02 -8.330961389144058e-01 -2.995696876648455e+00
2.132930325644361e-02 1.369936556304358e-01 -8.144957761270536e-01
1.849508513157340e-02 1.581084494300157e-01 -1.441705025417344e+00
1.038051593624732e-02 1.353946213005629e-01 -2.283901998841973e+00
6.534314468804221e-03 9.647352740408498e-02 -3.144554471665945e+00
3.243028140107454e-02 -1.024313755701850e-01 -7.775535240654912e-01
2.971068526143779e-02 -1.108561195277570e-01 -1.468500184403116e+00
2.294528485947013e-02 -1.181053493448126e-01 -2.306375440310789e+00
1.460519541825348e-02 -8.107710712019049e-02 -3.138111342833615e+00
7.458341737702494e-02 5.857362773851204e-02 -7.804678382182214e-01
6.853351167582794e-02 6.196902559633388e-02 -1.477473495441912e+00
5.254206077748659e-02 6.874694439272445e-02 -2.321256691152641e+00
3.322878372938807e-02 4.602869159925536e-02 -3.152645086055049e+00
4.944350091816015e-02 -1.017647576673096e-01 -8.115147333259679e-01
4.121312848350910e-02 -1.207943024572527e-01 -1.458747224235879e+00
2.354535246441332e-02 -1.060062898364938e-01 -2.301006089192898e+00
1.280547128594657e-02 -7.699878200815008e-02 -3.152022509300941e+00
1.530664356709366e-01 -2.129508802981629e-01 -7.228423485449786e-01
9.914011845903731e-02 8.771238016064680e-03 -1.240894734069714e+00
-2.608370154069383e-02 4.213180616576794e-01 -1.938530013991804e+00
-9.982174686608872e-02 5.962604861050592e-01 -3.025298224237885e+00
1.530664356712537e-01 2.129508802981388e-01 -7.228423485449735e-01
9.914011845926876e-02 -8.771238016039400e-03 -1.240894734069790e+00
-2.608370154068757e-02 -4.213180616577119e-01 -1.938530013991780e+00
-9.982174686616381e-02 -5.962604861052172e-01 -3.025298224237801e+00