<?xml version="1.0" ?> 
<!-- 
# vtk DataFile Version 3.0
-->
<VTKFile type="UnstructuredGrid" version="0.1" compressor="vtkZLibDataCompressor" byte_order="LittleEndian">
  <UnstructuredGrid>
    <FieldData>
      <DataArray type="Float64" Name="TIME" NumberOfTuples="1" format="ascii">
0.000000000000000e+00 
      </DataArray>
    </FieldData>

    <Piece NumberOfPoints="80" NumberOfCells="0" >
      <Points>
        <DataArray type="Float64" NumberOfComponents="3" format="ascii">
-1.500000000000000e-01 -1.500000000000000e-01 1.050000000000000e+00
-1.500000000000000e-01 -4.999999999999999e-02 1.050000000000000e+00
-1.500000000000000e-01 4.999999999999999e-02 1.050000000000000e+00
-1.500000000000000e-01 1.500000000000001e-01 1.050000000000000e+00
-4.999999999999999e-02 -1.500000000000000e-01 1.050000000000000e+00
-4.999999999999999e-02 -4.999999999999999e-02 1.050000000000000e+00
-4.999999999999999e-02 4.999999999999999e-02 1.050000000000000e+00
-4.999999999999999e-02 1.500000000000001e-01 1.050000000000000e+00
4.999999999999999e-02 -1.500000000000000e-01 1.050000000000000e+00
4.999999999999999e-02 -4.999999999999999e-02 1.050000000000000e+00
4.999999999999999e-02 4.999999999999999e-02 1.050000000000000e+00
4.999999999999999e-02 1.500000000000001e-01 1.050000000000000e+00
1.500000000000001e-01 -1.500000000000000e-01 1.050000000000000e+00
1.500000000000001e-01 -4.999999999999999e-02 1.050000000000000e+00
1.500000000000001e-01 4.999999999999999e-02 1.050000000000000e+00
1.500000000000001e-01 1.500000000000001e-01 1.050000000000000e+00
-1.500000000000000e-01 -1.500000000000000e-01 1.150000000000000e+00
-1.500000000000000e-01 -1.500000000000000e-01 1.250000000000000e+00
-1.500000000000000e-01 -1.500000000000000e-01 1.350000000000000e+00
-1.500000000000000e-01 -1.500000000000000e-01 1.450000000000000e+00
-1.500000000000000e-01 -4.999999999999999e-02 1.150000000000000e+00
-1.500000000000000e-01 -4.999999999999999e-02 1.250000000000000e+00
-1.500000000000000e-01 -4.999999999999999e-02 1.350000000000000e+00
-1.500000000000000e-01 -4.999999999999999e-02 1.450000000000000e+00
-1.500000000000000e-01 4.999999999999999e-02 1.150000000000000e+00
-1.500000000000000e-01 4.999999999999999e-02 1.250000000000000e+00
-1.500000000000000e-01 4.999999999999999e-02 1.350000000000000e+00
-1.500000000000000e-01 4.999999999999999e-02 1.450000000000000e+00
-1.500000000000000e-01 1.500000000000001e-01 1.150000000000000e+00
-1.500000000000000e-01 1.500000000000001e-01 1.250000000000000e+00
-1.500000000000000e-01 1.500000000000001e-01 1.350000000000000e+00
-1.500000000000000e-01 1.500000000000001e-01 1.450000000000000e+00
-4.999999999999999e-02 -1.500000000000000e-01 1.150000000000000e+00
-4.999999999999999e-02 -1.500000000000000e-01 1.250000000000000e+00
-4.999999999999999e-02 -1.500000000000000e-01 1.350000000000000e+00
-4.999999999999999e-02 -1.500000000000000e-01 1.450000000000000e+00
-4.999999999999999e-02 -4.999999999999999e-02 1.150000000000000e+00
-4.999999999999999e-02 -4.999999999999999e-02 1.250000000000000e+00
-4.999999999999999e-02 -4.999999999999999e-02 1.350000000000000e+00
-4.999999999999999e-02 -4.999999999999999e-02 1.450000000000000e+00
-4.999999999999999e-02 4.999999999999999e-02 1.150000000000000e+00
-4.999999999999999e-02 4.999999999999999e-02 1.250000000000000e+00
-4.999999999999999e-02 4.999999999999999e-02 1.350000000000000e+00
-4.999999999999999e-02 4.999999999999999e-02 1.450000000000000e+00
-4.999999999999999e-02 1.500000000000001e-01 1.150000000000000e+00
-4.999999999999999e-02 1.500000000000001e-01 1.250000000000000e+00
-4.999999999999999e-02 1.500000000000001e-01 1.350000000000000e+00
-4.999999999999999e-02 1.500000000000001e-01 1.450000000000000e+00
4.999999999999999e-02 -1.500000000000000e-01 1.150000000000000e+00
4.999999999999999e-02 -1.500000000000000e-01 1.250000000000000e+00
4.999999999999999e-02 -1.500000000000000e-01 1.350000000000000e+00
4.999999999999999e-02 -1.500000000000000e-01 1.450000000000000e+00
4.999999999999999e-02 -4.999999999999999e-02 1.150000000000000e+00
4.999999999999999e-02 -4.999999999999999e-02 1.250000000000000e+00
4.999999999999999e-02 -4.999999999999999e-02 1.350000000000000e+00
4.999999999999999e-02 -4.999999999999999e-02 1.450000000000000e+00
4.999999999999999e-02 4.999999999999999e-02 1.150000000000000e+00
4.999999999999999e-02 4.999999999999999e-02 1.250000000000000e+00
4.999999999999999e-02 4.999999999999999e-02 1.350000000000000e+00
4.999999999999999e-02 4.999999999999999e-02 1.450000000000000e+00
4.999999999999999e-02 1.500000000000001e-01 1.150000000000000e+00
4.999999999999999e-02 1.500000000000001e-01 1.250000000000000e+00
4.999999999999999e-02 1.500000000000001e-01 1.350000000000000e+00
4.999999999999999e-02 1.500000000000001e-01 1.450000000000000e+00
1.500000000000001e-01 -1.500000000000000e-01 1.150000000000000e+00
1.500000000000001e-01 -1.500000000000000e-01 1.250000000000000e+00
1.500000000000001e-01 -1.500000000000000e-01 1.350000000000000e+00
1.500000000000001e-01 -1.500000000000000e-01 1.450000000000000e+00
1.500000000000001e-01 -4.999999999999999e-02 1.150000000000000e+00
1.500000000000001e-01 -4.999999999999999e-02 1.250000000000000e+00
1.500000000000001e-01 -4.999999999999999e-02 1.350000000000000e+00
1.500000000000001e-01 -4.999999999999999e-02 1.450000000000000e+00
1.500000000000001e-01 4.999999999999999e-02 1.150000000000000e+00
1.500000000000001e-01 4.999999999999999e-02 1.250000000000000e+00
1.500000000000001e-01 4.999999999999999e-02 1.350000000000000e+00
1.500000000000001e-01 4.999999999999999e-02 1.450000000000000e+00
1.500000000000001e-01 1.500000000000001e-01 1.150000000000000e+00
1.500000000000001e-01 1.500000000000001e-01 1.250000000000000e+00
1.500000000000001e-01 1.500000000000001e-01 1.350000000000000e+00
1.500000000000001e-01 1.500000000000001e-01 1.450000000000000e+00
        </DataArray>
      </Points>

      <Cells>
        <DataArray type="Int32" Name="connectivity" format="ascii">

        </DataArray>
        <DataArray type="Int32" Name="offsets" format="ascii">

        </DataArray>
        <DataArray type="UInt8" Name="types" format="ascii">

        </DataArray>
      </Cells>

  <PointData>
        <DataArray type="Float64" Name="acceleration" NumberOfComponents="3" format="ascii">
-5.854629071727652e-14 -4.921526085501171e-14 -2.764431746318898e-01
-5.517626672575337e-14 -4.921526085501171e-14 -2.764431746318788e-01
-5.180624273423021e-14 -4.921526085501171e-14 -2.764431746318678e-01
-4.843621874270705e-14 -4.921526085501171e-14 -2.764431746318569e-01
-5.854629071727652e-14 -5.258528484653486e-14 -2.764431746318814e-01
-5.517626672575337e-14 -5.258528484653486e-14 -2.764431746318704e-01
-5.180624273423021e-14 -5.258528484653486e-14 -2.764431746318595e-01
-4.843621874270705e-14 -5.258528484653486e-14 -2.764431746318485e-01
-5.854629071727652e-14 -5.595530883805802e-14 -2.764431746318730e-01
-5.517626672575337e-14 -5.595530883805802e-14 -2.764431746318620e-01
-5.180624273423021e-14 -5.595530883805802e-14 -2.764431746318511e-01
-4.843621874270705e-14 -5.595530883805802e-14 -2.764431746318401e-01
-5.854629071727652e-14 -5.932533282958119e-14 -2.764431746318646e-01
-5.517626672575337e-14 -5.932533282958119e-14 -2.764431746318536e-01
-5.180624273423021e-14 -5.932533282958119e-14 -2.764431746318426e-01
-4.843621874270705e-14 -5.932533282958119e-14 -2.764431746318317e-01
-6.694710965247163e-14 -6.017016763235263e-14 -2.764431746318898e-01
-7.534792858766676e-14 -7.112507440969357e-14 -2.764431746318898e-01
-8.374874752286188e-14 -8.207998118703451e-14 -2.764431746318898e-01
-9.214956645805700e-14 -9.303488796437544e-14 -2.764431746318898e-01
-6.357708566094848e-14 -6.017016763235263e-14 -2.764431746318788e-01
-7.197790459614360e-14 -7.112507440969357e-14 -2.764431746318788e-01
-8.037872353133873e-14 -8.207998118703451e-14 -2.764431746318788e-01
-8.877954246653384e-14 -9.303488796437544e-14 -2.764431746318788e-01
-6.020706166942532e-14 -6.017016763235263e-14 -2.764431746318678e-01
-6.860788060462045e-14 -7.112507440969357e-14 -2.764431746318678e-01
-7.700869953981558e-14 -8.207998118703451e-14 -2.764431746318678e-01
-8.540951847501067e-14 -9.303488796437544e-14 -2.764431746318678e-01
-5.683703767790216e-14 -6.017016763235263e-14 -2.764431746318569e-01
-6.523785661309728e-14 -7.112507440969357e-14 -2.764431746318569e-01
-7.363867554829242e-14 -8.207998118703451e-14 -2.764431746318569e-01
-8.203949448348752e-14 -9.303488796437544e-14 -2.764431746318569e-01
-6.694710965247163e-14 -6.354019162387579e-14 -2.764431746318814e-01
-7.534792858766676e-14 -7.449509840121674e-14 -2.764431746318814e-01
-8.374874752286188e-14 -8.545000517855768e-14 -2.764431746318814e-01
-9.214956645805700e-14 -9.640491195589860e-14 -2.764431746318814e-01
-6.357708566094848e-14 -6.354019162387579e-14 -2.764431746318704e-01
-7.197790459614360e-14 -7.449509840121674e-14 -2.764431746318704e-01
-8.037872353133873e-14 -8.545000517855768e-14 -2.764431746318704e-01
-8.877954246653384e-14 -9.640491195589860e-14 -2.764431746318704e-01
-6.020706166942532e-14 -6.354019162387579e-14 -2.764431746318595e-01
-6.860788060462045e-14 -7.449509840121674e-14 -2.764431746318595e-01
-7.700869953981558e-14 -8.545000517855768e-14 -2.764431746318595e-01
-8.540951847501067e-14 -9.640491195589860e-14 -2.764431746318595e-01
-5.683703767790216e-14 -6.354019162387579e-14 -2.764431746318485e-01
-6.523785661309728e-14 -7.449509840121674e-14 -2.764431746318485e-01
-7.363867554829242e-14 -8.545000517855768e-14 -2.764431746318485e-01
-8.203949448348752e-14 -9.640491195589860e-14 -2.764431746318485e-01
-6.694710965247163e-14 -6.691021561539894e-14 -2.764431746318730e-01
-7.534792858766676e-14 -7.786512239273989e-14 -2.764431746318730e-01
-8.374874752286188e-14 -8.882002917008083e-14 -2.764431746318730e-01
-9.214956645805700e-14 -9.977493594742176e-14 -2.764431746318730e-01
-6.357708566094848e-14 -6.691021561539894e-14 -2.764431746318620e-01
-7.197790459614360e-14 -7.786512239273989e-14 -2.764431746318620e-01
-8.037872353133873e-14 -8.882002917008083e-14 -2.764431746318620e-01
-8.877954246653384e-14 -9.977493594742176e-14 -2.764431746318620e-01
-6.020706166942532e-14 -6.691021561539894e-14 -2.764431746318511e-01
-6.860788060462045e-14 -7.786512239273989e-14 -2.764431746318511e-01
-7.700869953981558e-14 -8.882002917008083e-14 -2.764431746318511e-01
-8.540951847501067e-14 -9.977493594742176e-14 -2.764431746318511e-01
-5.683703767790216e-14 -6.691021561539894e-14 -2.764431746318401e-01
-6.523785661309728e-14 -7.786512239273989e-14 -2.764431746318401e-01
-7.363867554829242e-14 -8.882002917008083e-14 -2.764431746318401e-01
-8.203949448348752e-14 -9.977493594742176e-14 -2.764431746318401e-01
-6.694710965247163e-14 -7.028023960692211e-14 -2.764431746318646e-01
-7.534792858766676e-14 -8.123514638426305e-14 -2.764431746318646e-01
-8.374874752286188e-14 -9.219005316160399e-14 -2.764431746318646e-01
-9.214956645805700e-14 -1.031449599389449e-13 -2.764431746318646e-01
-6.357708566094848e-14 -7.028023960692211e-14 -2.764431746318536e-01
-7.197790459614360e-14 -8.123514638426305e-14 -2.764431746318536e-01
-8.037872353133873e-14 -9.219005316160399e-14 -2.764431746318536e-01
-8.877954246653384e-14 -1.031449599389449e-13 -2.764431746318536e-01
-6.020706166942532e-14 -7.028023960692211e-14 -2.764431746318426e-01
-6.860788060462045e-14 -8.123514638426305e-14 -2.764431746318426e-01
-7.700869953981558e-14 -9.219005316160399e-14 -2.764431746318426e-01
-8.540951847501067e-14 -1.031449599389449e-13 -2.764431746318426e-01
-5.683703767790216e-14 -7.028023960692211e-14 -2.764431746318317e-01
-6.523785661309728e-14 -8.123514638426305e-14 -2.764431746318317e-01
-7.363867554829242e-14 -9.219005316160399e-14 -2.764431746318317e-01
-8.203949448348752e-14 -1.031449599389449e-13 -2.764431746318317e-01
        </DataArray>
        <DataArray type="Float64" Name="body frame relative position" NumberOfComponents="3" format="ascii">
-1.500000000000000e-01 -1.500000000000000e-01 -2.000000000000000e-01
-1.500000000000000e-01 -5.000000000000002e-02 -2.000000000000000e-01
-1.500000000000000e-01 4.999999999999996e-02 -2.000000000000000e-01
-1.500000000000000e-01 1.500000000000001e-01 -2.000000000000000e-01
-5.000000000000002e-02 -1.500000000000000e-01 -2.000000000000000e-01
-5.000000000000002e-02 -5.000000000000002e-02 -2.000000000000000e-01
-5.000000000000002e-02 4.999999999999996e-02 -2.000000000000000e-01
-5.000000000000002e-02 1.500000000000001e-01 -2.000000000000000e-01
4.999999999999995e-02 -1.500000000000000e-01 -2.000000000000000e-01
4.999999999999995e-02 -5.000000000000002e-02 -2.000000000000000e-01
4.999999999999995e-02 4.999999999999996e-02 -2.000000000000000e-01
4.999999999999995e-02 1.500000000000001e-01 -2.000000000000000e-01
1.500000000000001e-01 -1.500000000000000e-01 -2.000000000000000e-01
1.500000000000001e-01 -5.000000000000002e-02 -2.000000000000000e-01
1.500000000000001e-01 4.999999999999996e-02 -2.000000000000000e-01
1.500000000000001e-01 1.500000000000001e-01 -2.000000000000000e-01
-1.500000000000000e-01 -1.500000000000000e-01 -1.000000000000001e-01
-1.500000000000000e-01 -1.500000000000000e-01 0.000000000000000e+00
-1.500000000000000e-01 -1.500000000000000e-01 1.000000000000001e-01
-1.500000000000000e-01 -1.500000000000000e-01 2.000000000000000e-01
-1.500000000000000e-01 -5.000000000000002e-02 -1.000000000000001e-01
-1.500000000000000e-01 -5.000000000000002e-02 0.000000000000000e+00
-1.500000000000000e-01 -5.000000000000002e-02 1.000000000000001e-01
-1.500000000000000e-01 -5.000000000000002e-02 2.000000000000000e-01
-1.500000000000000e-01 4.999999999999996e-02 -1.000000000000001e-01
-1.500000000000000e-01 4.999999999999996e-02 0.000000000000000e+00
-1.500000000000000e-01 4.999999999999996e-02 1.000000000000001e-01
-1.500000000000000e-01 4.999999999999996e-02 2.000000000000000e-01
-1.500000000000000e-01 1.500000000000001e-01 -1.000000000000001e-01
-1.500000000000000e-01 1.500000000000001e-01 0.000000000000000e+00
-1.500000000000000e-01 1.500000000000001e-01 1.000000000000001e-01
-1.500000000000000e-01 1.500000000000001e-01 2.000000000000000e-01
-5.000000000000002e-02 -1.500000000000000e-01 -1.000000000000001e-01
-5.000000000000002e-02 -1.500000000000000e-01 0.000000000000000e+00
-5.000000000000002e-02 -1.500000000000000e-01 1.000000000000001e-01
-5.000000000000002e-02 -1.500000000000000e-01 2.000000000000000e-01
-5.000000000000002e-02 -5.000000000000002e-02 -1.000000000000001e-01
-5.000000000000002e-02 -5.000000000000002e-02 0.000000000000000e+00
-5.000000000000002e-02 -5.000000000000002e-02 1.000000000000001e-01
-5.000000000000002e-02 -5.000000000000002e-02 2.000000000000000e-01
-5.000000000000002e-02 4.999999999999996e-02 -1.000000000000001e-01
-5.000000000000002e-02 4.999999999999996e-02 0.000000000000000e+00
-5.000000000000002e-02 4.999999999999996e-02 1.000000000000001e-01
-5.000000000000002e-02 4.999999999999996e-02 2.000000000000000e-01
-5.000000000000002e-02 1.500000000000001e-01 -1.000000000000001e-01
-5.000000000000002e-02 1.500000000000001e-01 0.000000000000000e+00
-5.000000000000002e-02 1.500000000000001e-01 1.000000000000001e-01
-5.000000000000002e-02 1.500000000000001e-01 2.000000000000000e-01
4.999999999999995e-02 -1.500000000000000e-01 -1.000000000000001e-01
4.999999999999995e-02 -1.500000000000000e-01 0.000000000000000e+00
4.999999999999995e-02 -1.500000000000000e-01 1.000000000000001e-01
4.999999999999995e-02 -1.500000000000000e-01 2.000000000000000e-01
4.999999999999995e-02 -5.000000000000002e-02 -1.000000000000001e-01
4.999999999999995e-02 -5.000000000000002e-02 0.000000000000000e+00
4.999999999999995e-02 -5.000000000000002e-02 1.000000000000001e-01
4.999999999999995e-02 -5.000000000000002e-02 2.000000000000000e-01
4.999999999999995e-02 4.999999999999996e-02 -1.000000000000001e-01
4.999999999999995e-02 4.999999999999996e-02 0.000000000000000e+00
4.999999999999995e-02 4.999999999999996e-02 1.000000000000001e-01
4.999999999999995e-02 4.999999999999996e-02 2.000000000000000e-01
4.999999999999995e-02 1.500000000000001e-01 -1.000000000000001e-01
4.999999999999995e-02 1.500000000000001e-01 0.000000000000000e+00
4.999999999999995e-02 1.500000000000001e-01 1.000000000000001e-01
4.999999999999995e-02 1.500000000000001e-01 2.000000000000000e-01
1.500000000000001e-01 -1.500000000000000e-01 -1.000000000000001e-01
1.500000000000001e-01 -1.500000000000000e-01 0.000000000000000e+00
1.500000000000001e-01 -1.500000000000000e-01 1.000000000000001e-01
1.500000000000001e-01 -1.500000000000000e-01 2.000000000000000e-01
1.500000000000001e-01 -5.000000000000002e-02 -1.000000000000001e-01
1.500000000000001e-01 -5.000000000000002e-02 0.000000000000000e+00
1.500000000000001e-01 -5.000000000000002e-02 1.000000000000001e-01
1.500000000000001e-01 -5.000000000000002e-02 2.000000000000000e-01
1.500000000000001e-01 4.999999999999996e-02 -1.000000000000001e-01
1.500000000000001e-01 4.999999999999996e-02 0.000000000000000e+00
1.500000000000001e-01 4.999999999999996e-02 1.000000000000001e-01
1.500000000000001e-01 4.999999999999996e-02 2.000000000000000e-01
1.500000000000001e-01 1.500000000000001e-01 -1.000000000000001e-01
1.500000000000001e-01 1.500000000000001e-01 0.000000000000000e+00
1.500000000000001e-01 1.500000000000001e-01 1.000000000000001e-01
1.500000000000001e-01 1.500000000000001e-01 2.000000000000000e-01
        </DataArray>
        <DataArray type="Float64" Name="boundary pressure" format="ascii">
0.000000000000000e+00
0.000000000000000e+00
0.000000000000000e+00
0.000000000000000e+00
0.000000000000000e+00
0.000000000000000e+00
0.000000000000000e+00
0.000000000000000e+00
0.000000000000000e+00
0.000000000000000e+00
0.000000000000000e+00
0.000000000000000e+00
0.000000000000000e+00
0.000000000000000e+00
0.000000000000000e+00
0.000000000000000e+00
0.000000000000000e+00
0.000000000000000e+00
0.000000000000000e+00
0.000000000000000e+00
0.000000000000000e+00
0.000000000000000e+00
0.000000000000000e+00
0.000000000000000e+00
0.000000000000000e+00
0.000000000000000e+00
0.000000000000000e+00
0.000000000000000e+00
0.000000000000000e+00
0.000000000000000e+00
0.000000000000000e+00
0.000000000000000e+00
0.000000000000000e+00
0.000000000000000e+00
0.000000000000000e+00
0.000000000000000e+00
0.000000000000000e+00
0.000000000000000e+00
0.000000000000000e+00
0.000000000000000e+00
0.000000000000000e+00
0.000000000000000e+00
0.000000000000000e+00
0.000000000000000e+00
0.000000000000000e+00
0.000000000000000e+00
0.000000000000000e+00
0.000000000000000e+00
0.000000000000000e+00
0.000000000000000e+00
0.000000000000000e+00
0.000000000000000e+00
0.000000000000000e+00
0.000000000000000e+00
0.000000000000000e+00
0.000000000000000e+00
0.000000000000000e+00
0.000000000000000e+00
0.000000000000000e+00
0.000000000000000e+00
0.000000000000000e+00
0.000000000000000e+00
0.000000000000000e+00
0.000000000000000e+00
0.000000000000000e+00
0.000000000000000e+00
0.000000000000000e+00
0.000000000000000e+00
0.000000000000000e+00
0.000000000000000e+00
0.000000000000000e+00
0.000000000000000e+00
0.000000000000000e+00
0.000000000000000e+00
0.000000000000000e+00
0.000000000000000e+00
0.000000000000000e+00
0.000000000000000e+00
0.000000000000000e+00
0.000000000000000e+00
        </DataArray>
        <DataArray type="Float64" Name="boundary velocity" NumberOfComponents="3" format="ascii">
0.000000000000000e+00 0.000000000000000e+00 0.000000000000000e+00
0.000000000000000e+00 0.000000000000000e+00 0.000000000000000e+00
0.000000000000000e+00 0.000000000000000e+00 0.000000000000000e+00
0.000000000000000e+00 0.000000000000000e+00 0.000000000000000e+00
0.000000000000000e+00 0.000000000000000e+00 0.000000000000000e+00
0.000000000000000e+00 0.000000000000000e+00 0.000000000000000e+00
0.000000000000000e+00 0.000000000000000e+00 0.000000000000000e+00
0.000000000000000e+00 0.000000000000000e+00 0.000000000000000e+00
0.000000000000000e+00 0.000000000000000e+00 0.000000000000000e+00
0.000000000000000e+00 0.000000000000000e+00 0.000000000000000e+00
0.000000000000000e+00 0.000000000000000e+00 0.000000000000000e+00
0.000000000000000e+00 0.000000000000000e+00 0.000000000000000e+00
0.000000000000000e+00 0.000000000000000e+00 0.000000000000000e+00
0.000000000000000e+00 0.000000000000000e+00 0.000000000000000e+00
0.000000000000000e+00 0.000000000000000e+00 0.000000000000000e+00
0.000000000000000e+00 0.000000000000000e+00 0.000000000000000e+00
0.000000000000000e+00 0.000000000000000e+00 0.000000000000000e+00
0.000000000000000e+00 0.000000000000000e+00 0.000000000000000e+00
0.000000000000000e+00 0.000000000000000e+00 0.000000000000000e+00
0.000000000000000e+00 0.000000000000000e+00 0.000000000000000e+00
0.000000000000000e+00 0.000000000000000e+00 0.000000000000000e+00
0.000000000000000e+00 0.000000000000000e+00 0.000000000000000e+00
0.000000000000000e+00 0.000000000000000e+00 0.000000000000000e+00
0.000000000000000e+00 0.000000000000000e+00 0.000000000000000e+00
0.000000000000000e+00 0.000000000000000e+00 0.000000000000000e+00
0.000000000000000e+00 0.000000000000000e+00 0.000000000000000e+00
0.000000000000000e+00 0.000000000000000e+00 0.000000000000000e+00
0.000000000000000e+00 0.000000000000000e+00 0.000000000000000e+00
0.000000000000000e+00 0.000000000000000e+00 0.000000000000000e+00
0.000000000000000e+00 0.000000000000000e+00 0.000000000000000e+00
0.000000000000000e+00 0.000000000000000e+00 0.000000000000000e+00
0.000000000000000e+00 0.000000000000000e+00 0.000000000000000e+00
0.000000000000000e+00 0.000000000000000e+00 0.000000000000000e+00
0.000000000000000e+00 0.000000000000000e+00 0.000000000000000e+00
0.000000000000000e+00 0.000000000000000e+00 0.000000000000000e+00
0.000000000000000e+00 0.000000000000000e+00 0.000000000000000e+00
0.000000000000000e+00 0.000000000000000e+00 0.000000000000000e+00
0.000000000000000e+00 0.000000000000000e+00 0.000000000000000e+00
0.000000000000000e+00 0.000000000000000e+00 0.000000000000000e+00
0.000000000000000e+00 0.000000000000000e+00 0.000000000000000e+00
0.000000000000000e+00 0.000000000000000e+00 0.000000000000000e+00
0.000000000000000e+00 0.000000000000000e+00 0.000000000000000e+00
0.000000000000000e+00 0.000000000000000e+00 0.000000000000000e+00
0.000000000000000e+00 0.000000000000000e+00 0.000000000000000e+00
0.000000000000000e+00 0.000000000000000e+00 0.000000000000000e+00
0.000000000000000e+00 0.000000000000000e+00 0.000000000000000e+00
0.000000000000000e+00 0.000000000000000e+00 0.000000000000000e+00
0.000000000000000e+00 0.000000000000000e+00 0.000000000000000e+00
0.000000000000000e+00 0.000000000000000e+00 0.000000000000000e+00
0.000000000000000e+00 0.000000000000000e+00 0.000000000000000e+00
0.000000000000000e+00 0.000000000000000e+00 0.000000000000000e+00
0.000000000000000e+00 0.000000000000000e+00 0.000000000000000e+00
0.000000000000000e+00 0.000000000000000e+00 0.000000000000000e+00
0.000000000000000e+00 0.000000000000000e+00 0.000000000000000e+00
0.000000000000000e+00 0.000000000000000e+00 0.000000000000000e+00
0.000000000000000e+00 0.000000000000000e+00 0.000000000000000e+00
0.000000000000000e+00 0.000000000000000e+00 0.000000000000000e+00
0.000000000000000e+00 0.000000000000000e+00 0.000000000000000e+00
0.000000000000000e+00 0.000000000000000e+00 0.000000000000000e+00
0.000000000000000e+00 0.000000000000000e+00 0.000000000000000e+00
0.000000000000000e+00 0.000000000000000e+00 0.000000000000000e+00
0.000000000000000e+00 0.000000000000000e+00 0.000000000000000e+00
0.000000000000000e+00 0.000000000000000e+00 0.000000000000000e+00
0.000000000000000e+00 0.000000000000000e+00 0.000000000000000e+00
0.000000000000000e+00 0.000000000000000e+00 0.000000000000000e+00
0.000000000000000e+00 0.000000000000000e+00 0.000000000000000e+00
0.000000000000000e+00 0.000000000000000e+00 0.000000000000000e+00
0.000000000000000e+00 0.000000000000000e+00 0.000000000000000e+00
0.000000000000000e+00 0.000000000000000e+00 0.000000000000000e+00
0.000000000000000e+00 0.000000000000000e+00 0.000000000000000e+00
0.000000000000000e+00 0.000000000000000e+00 0.000000000000000e+00
0.000000000000000e+00 0.000000000000000e+00 0.000000000000000e+00
0.000000000000000e+00 0.000000000000000e+00 0.000000000000000e+00
0.000000000000000e+00 0.000000000000000e+00 0.000000000000000e+00
0.000000000000000e+00 0.000000000000000e+00 0.000000000000000e+00
0.000000000000000e+00 0.000000000000000e+00 0.000000000000000e+00
0.000000000000000e+00 0.000000000000000e+00 0.000000000000000e+00
0.000000000000000e+00 0.000000000000000e+00 0.000000000000000e+00
0.000000000000000e+00 0.000000000000000e+00 0.000000000000000e+00
0.000000000000000e+00 0.000000000000000e+00 0.000000000000000e+00
        </DataArray>
        <DataArray type="Float64" Name="force" NumberOfComponents="3" format="ascii">
7.868948596269365e-04 7.868948596269824e-04 -5.029855940793245e-04
1.001664006071407e-03 6.173478537408726e-05 -2.882164476348779e-04
1.001664006071363e-03 -6.173478537406547e-05 -2.882164476348614e-04
7.868948596268973e-04 -7.868948596271593e-04 -5.029855940793336e-04
6.173478537409267e-05 1.001664006071431e-03 -2.882164476348842e-04
7.563926175546784e-05 7.563926175546984e-05 -1.669615770013333e-05
7.563926175546215e-05 -7.563926175547999e-05 -1.669615770013373e-05
6.173478537408241e-05 -1.001664006071595e-03 -2.882164476349227e-04
-6.173478537406713e-05 1.001664006071376e-03 -2.882164476348620e-04
-7.563926175547749e-05 7.563926175546616e-05 -1.669615770013395e-05
-7.563926175547087e-05 -7.563926175547580e-05 -1.669615770013433e-05
-6.173478537406052e-05 -1.001664006071550e-03 -2.882164476349119e-04
-7.868948596271779e-04 7.868948596269034e-04 -5.029855940793573e-04
-1.001664006071572e-03 6.173478537411625e-05 -2.882164476349326e-04
-1.001664006071485e-03 -6.173478537405575e-05 -2.882164476349032e-04
-7.868948596270464e-04 -7.868948596271265e-04 -5.029855940793796e-04
1.001664006071367e-03 1.001664006071409e-03 -3.060063407859513e-05
1.008638687713297e-03 1.008638687713253e-03 7.827685575461166e-17
1.001664006071313e-03 1.001664006071274e-03 -6.173478537587195e-05
7.868948596268944e-04 7.868948596268886e-04 -7.868948596256912e-04
1.273184296006125e-03 7.563926175546698e-05 -1.669615769727975e-05
1.281532374855288e-03 7.566170520682522e-05 4.929710577196347e-17
1.273184296005977e-03 7.563926175548392e-05 -7.563926175718383e-05
1.001664006071290e-03 6.173478537414747e-05 -1.001664006070093e-03
1.273184296006054e-03 -7.563926175542830e-05 -1.669615769727594e-05
1.281532374855204e-03 -7.566170520678073e-05 5.122834089170327e-17
1.273184296005889e-03 -7.563926175543769e-05 -7.563926175717857e-05
1.001664006071232e-03 -6.173478537401443e-05 -1.001664006069980e-03
1.001664006071290e-03 -1.001664006071619e-03 -3.060063407860216e-05
1.008638687713180e-03 -1.008638687713586e-03 2.254695826472541e-17
1.001664006071166e-03 -1.001664006071733e-03 -6.173478537589210e-05
7.868948596268024e-04 -7.868948596273825e-04 -7.868948596254773e-04
7.563926175548363e-05 1.273184296006133e-03 -1.669615769725203e-05
7.566170520683238e-05 1.281532374855236e-03 6.112676791331702e-17
7.563926175548057e-05 1.273184296005946e-03 -7.563926175720558e-05
6.173478537415142e-05 1.001664006071271e-03 -1.001664006070082e-03
9.229053255149485e-05 9.229053255149483e-05 -4.488690132638446e-08
9.231297600283429e-05 9.231297600282968e-05 3.453776842429410e-18
9.229053255148281e-05 9.229053255148113e-05 -9.229053255316461e-05
7.563926175548594e-05 7.563926175548660e-05 -1.273184296004775e-03
9.229053255148735e-05 -9.229053255150725e-05 -4.488690132718131e-08
9.231297600282773e-05 -9.231297600284894e-05 1.887189406482581e-18
9.229053255147614e-05 -9.229053255150550e-05 -9.229053255315821e-05
7.563926175545886e-05 -7.563926175542614e-05 -1.273184296004669e-03
7.563926175545550e-05 -1.273184296006347e-03 -1.669615769727633e-05
7.566170520682216e-05 -1.281532374855536e-03 8.211772665393628e-18
7.563926175548980e-05 -1.273184296006352e-03 -7.563926175723547e-05
6.173478537411225e-05 -1.001664006071739e-03 -1.001664006069871e-03
-7.563926175543818e-05 1.273184296006047e-03 -1.669615769725099e-05
-7.566170520679748e-05 1.281532374855160e-03 5.467915311881729e-17
-7.563926175544162e-05 1.273184296005865e-03 -7.563926175719494e-05
-6.173478537404441e-05 1.001664006071208e-03 -1.001664006069996e-03
-9.229053255151002e-05 9.229053255148848e-05 -4.488690132751461e-08
-9.231297600285547e-05 9.231297600282514e-05 2.218167530622199e-18
-9.229053255150616e-05 9.229053255147601e-05 -9.229053255315854e-05
-7.563926175544039e-05 7.563926175547068e-05 -1.273184296004685e-03
-9.229053255149934e-05 -9.229053255150189e-05 -4.488690132739497e-08
-9.231297600284136e-05 -9.231297600284319e-05 1.778133914523590e-18
-9.229053255149200e-05 -9.229053255149581e-05 -9.229053255315366e-05
-7.563926175542380e-05 -7.563926175542877e-05 -1.273184296004601e-03
-7.563926175544265e-05 -1.273184296006298e-03 -1.669615769728013e-05
-7.566170520680247e-05 -1.281532374855476e-03 2.581671719936382e-17
-7.563926175542381e-05 -1.273184296006238e-03 -7.563926175721098e-05
-6.173478537401425e-05 -1.001664006071632e-03 -1.001664006069852e-03
-1.001664006071687e-03 1.001664006071271e-03 -3.060063407860112e-05
-1.008638687713630e-03 1.008638687713108e-03 6.002710738954413e-17
-1.001664006071708e-03 1.001664006071111e-03 -6.173478537588655e-05
-7.868948596273647e-04 7.868948596267642e-04 -7.868948596255583e-04
-1.273184296006378e-03 7.563926175549769e-05 -1.669615769731060e-05
-1.281532374855593e-03 7.566170520685574e-05 2.194154146567540e-17
-1.273184296006346e-03 7.563926175550843e-05 -7.563926175720571e-05
-1.001664006071718e-03 6.173478537415509e-05 -1.001664006069931e-03
-1.273184296006244e-03 -7.563926175541202e-05 -1.669615769729266e-05
-1.281532374855437e-03 -7.566170520676436e-05 2.816469252915274e-17
-1.273184296006197e-03 -7.563926175541815e-05 -7.563926175721185e-05
-1.001664006071603e-03 -6.173478537400899e-05 -1.001664006069849e-03
-1.001664006071537e-03 -1.001664006071640e-03 -3.060063407865166e-05
-1.008638687713509e-03 -1.008638687713589e-03 3.506779929103847e-17