<?xml version="1.0" ?> 
<!-- 
# vtk DataFile Version 3.0
-->
<VTKFile type="UnstructuredGrid" version="0.1" compressor="vtkZLibDataCompressor" byte_order="LittleEndian">
  <UnstructuredGrid>
    <FieldData>
      <DataArray type="Float64" Name="TIME" NumberOfTuples="1" format="ascii">
2.500000000000002e-01 
      </DataArray>
    </FieldData>

    <Piece NumberOfPoints="420" NumberOfCells="0" >
      <Points>
        <DataArray type="Float64" NumberOfComponents="3" format="ascii">
-4.503541675964750e-01 -4.503541675964750e-01 1.020082166222951e+00
-4.489985176235522e-01 -3.497031695173573e-01 1.021534654647523e+00
-4.475737319776668e-01 -2.495195816358612e-01 1.022701465346777e+00
-4.459083005344822e-01 -1.495792648115389e-01 1.023809380783517e+00
-4.443409052236263e-01 -5.031489518536917e-02 1.025063587595616e+00
-4.443409052236266e-01 5.031489518536926e-02 1.025063587595616e+00
-4.459083005344820e-01 1.495792648115390e-01 1.023809380783517e+00
-4.475737319776667e-01 2.495195816358612e-01 1.022701465346778e+00
-4.489985176235523e-01 3.497031695173572e-01 1.021534654647522e+00
-4.503541675964750e-01 4.503541675964748e-01 1.020082166222952e+00
-3.497031695173575e-01 -4.489985176235521e-01 1.021534654647523e+00
-3.484747099647733e-01 -3.484747099647733e-01 1.019918056550914e+00
-3.467153919603746e-01 -2.477458044762499e-01 1.018228047740456e+00
-3.449957387093686e-01 -1.477115300768383e-01 1.016881748945466e+00
-3.433989330051253e-01 -4.862874180242470e-02 1.015272423720054e+00
-3.433989330051252e-01 4.862874180242484e-02 1.015272423720054e+00
-3.449957387093687e-01 1.477115300768383e-01 1.016881748945466e+00
-3.467153919603746e-01 2.477458044762499e-01 1.018228047740457e+00
-3.484747099647733e-01 3.484747099647734e-01 1.019918056550913e+00
-3.497031695173573e-01 4.489985176235523e-01 1.021534654647522e+00
-2.495195816358612e-01 -4.475737319776666e-01 1.022701465346778e+00
-2.477458044762500e-01 -3.467153919603746e-01 1.018228047740456e+00
-2.477536698368273e-01 -2.477536698368272e-01 1.015081642984504e+00
-2.486186769546201e-01 -1.478379248455945e-01 1.015091637996493e+00
-2.470555004488773e-01 -4.737903259870146e-02 1.011311894188885e+00
-2.470555004488772e-01 4.737903259870149e-02 1.011311894188885e+00
-2.486186769546200e-01 1.478379248455945e-01 1.015091637996493e+00
-2.477536698368272e-01 2.477536698368273e-01 1.015081642984504e+00
-2.477458044762498e-01 3.467153919603745e-01 1.018228047740457e+00
-2.495195816358612e-01 4.475737319776668e-01 1.022701465346778e+00
-1.495792648115390e-01 -4.459083005344822e-01 1.023809380783517e+00
-1.477115300768383e-01 -3.449957387093685e-01 1.016881748945466e+00
-1.478379248455945e-01 -2.486186769546200e-01 1.015091637996494e+00
-1.478379248455944e-01 2.486186769546200e-01 1.015091637996493e+00
-1.477115300768382e-01 3.449957387093686e-01 1.016881748945466e+00
-1.495792648115390e-01 4.459083005344821e-01 1.023809380783517e+00
-5.031489518536923e-02 -4.443409052236265e-01 1.025063587595616e+00
-4.862874180242471e-02 -3.433989330051252e-01 1.015272423720054e+00
-4.737903259870139e-02 -2.470555004488772e-01 1.011311894188885e+00
-4.737903259870137e-02 2.470555004488771e-01 1.011311894188885e+00
-4.862874180242467e-02 3.433989330051251e-01 1.015272423720054e+00
-5.031489518536927e-02 4.443409052236262e-01 1.025063587595616e+00
5.031489518536936e-02 -4.443409052236264e-01 1.025063587595616e+00
4.862874180242495e-02 -3.433989330051252e-01 1.015272423720054e+00
4.737903259870162e-02 -2.470555004488772e-01 1.011311894188885e+00
4.737903259870150e-02 2.470555004488772e-01 1.011311894188885e+00
4.862874180242484e-02 3.433989330051253e-01 1.015272423720054e+00
5.031489518536929e-02 4.443409052236263e-01 1.025063587595616e+00
1.495792648115393e-01 -4.459083005344821e-01 1.023809380783517e+00
1.477115300768385e-01 -3.449957387093687e-01 1.016881748945466e+00
1.478379248455947e-01 -2.486186769546201e-01 1.015091637996494e+00
1.478379248455945e-01 2.486186769546200e-01 1.015091637996493e+00
1.477115300768384e-01 3.449957387093686e-01 1.016881748945466e+00
1.495792648115392e-01 4.459083005344820e-01 1.023809380783517e+00
2.495195816358614e-01 -4.475737319776666e-01 1.022701465346778e+00
2.477458044762501e-01 -3.467153919603747e-01 1.018228047740456e+00
2.477536698368274e-01 -2.477536698368271e-01 1.015081642984504e+00
2.486186769546201e-01 -1.478379248455945e-01 1.015091637996493e+00
2.470555004488772e-01 -4.737903259870156e-02 1.011311894188885e+00
2.470555004488771e-01 4.737903259870147e-02 1.011311894188885e+00
2.486186769546201e-01 1.478379248455945e-01 1.015091637996493e+00
2.477536698368273e-01 2.477536698368273e-01 1.015081642984504e+00
2.477458044762500e-01 3.467153919603746e-01 1.018228047740456e+00
2.495195816358613e-01 4.475737319776667e-01 1.022701465346778e+00
3.497031695173574e-01 -4.489985176235520e-01 1.021534654647523e+00
3.484747099647734e-01 -3.484747099647732e-01 1.019918056550914e+00
3.467153919603747e-01 -2.477458044762499e-01 1.018228047740456e+00
3.449957387093687e-01 -1.477115300768384e-01 1.016881748945466e+00
3.433989330051252e-01 -4.862874180242482e-02 1.015272423720054e+00
3.433989330051253e-01 4.862874180242489e-02 1.015272423720054e+00
3.449957387093685e-01 1.477115300768383e-01 1.016881748945466e+00
3.467153919603748e-01 2.477458044762500e-01 1.018228047740456e+00
3.484747099647734e-01 3.484747099647733e-01 1.019918056550914e+00
3.497031695173572e-01 4.489985176235522e-01 1.021534654647522e+00
4.503541675964750e-01 -4.503541675964750e-01 1.020082166222951e+00
4.489985176235522e-01 -3.497031695173573e-01 1.021534654647522e+00
4.475737319776667e-01 -2.495195816358613e-01 1.022701465346778e+00
4.459083005344821e-01 -1.495792648115391e-01 1.023809380783517e+00
4.443409052236262e-01 -5.031489518536932e-02 1.025063587595616e+00
4.443409052236263e-01 5.031489518536938e-02 1.025063587595615e+00
4.459083005344819e-01 1.495792648115391e-01 1.023809380783517e+00
4.475737319776667e-01 2.495195816358612e-01 1.022701465346778e+00
4.489985176235521e-01 3.497031695173572e-01 1.021534654647522e+00
4.503541675964750e-01 4.503541675964750e-01 1.020082166222951e+00
-4.495925190951662e-01 -4.495925190951661e-01 1.119818721877755e+00
-4.496482034763238e-01 -4.496482034763238e-01 1.218941221354661e+00
-4.497533227801271e-01 -4.497533227801273e-01 1.318419828990366e+00
-4.498453220301910e-01 -4.498453220301912e-01 1.418253310506050e+00
-4.492903947654537e-01 -3.490964545500546e-01 1.119870514826669e+00
-4.494551939000236e-01 -3.491241932818239e-01 1.218848417934149e+00
-4.496586183769489e-01 -3.494129694695854e-01 1.318324506351669e+00
-4.497647849990248e-01 -3.496407562471207e-01 1.418208368588149e+00
-4.488338515541393e-01 -2.488219678545843e-01 1.119936914414650e+00
-4.493375885175340e-01 -2.489413181811334e-01 1.218690227134535e+00
-4.497247245247083e-01 -2.492852948855092e-01 1.318235773309082e+00
-4.498136954892207e-01 -2.495116834008418e-01 1.418260409615258e+00
-4.479564934557658e-01 -1.489280826589524e-01 1.120062242579567e+00
-4.486558404929586e-01 -1.489958393202666e-01 1.218611912372085e+00
-4.491554244361332e-01 -1.492659159728389e-01 1.318211867231071e+00
-4.493317121597890e-01 -1.494551787140202e-01 1.418301610001625e+00
-4.473485203132457e-01 -4.954285107070566e-02 1.120072361047274e+00
-4.482016141923484e-01 -4.964436347324955e-02 1.218526646668453e+00
-4.487993615183903e-01 -4.976014539267567e-02 1.318183002062802e+00
-4.490546177088445e-01 -4.982105842098221e-02 1.418337092619968e+00
-4.473485203132457e-01 4.954285107070582e-02 1.120072361047274e+00
-4.482016141923485e-01 4.964436347324955e-02 1.218526646668453e+00
-4.487993615183902e-01 4.976014539267569e-02 1.318183002062802e+00
-4.490546177088445e-01 4.982105842098223e-02 1.418337092619968e+00
-4.479564934557657e-01 1.489280826589524e-01 1.120062242579566e+00
-4.486558404929588e-01 1.489958393202666e-01 1.218611912372085e+00
-4.491554244361332e-01 1.492659159728389e-01 1.318211867231071e+00
-4.493317121597891e-01 1.494551787140202e-01 1.418301610001625e+00
-4.488338515541394e-01 2.488219678545843e-01 1.119936914414650e+00
-4.493375885175341e-01 2.489413181811334e-01 1.218690227134535e+00
-4.497247245247084e-01 2.492852948855092e-01 1.318235773309082e+00
-4.498136954892206e-01 2.495116834008418e-01 1.418260409615258e+00
-4.492903947654536e-01 3.490964545500547e-01 1.119870514826669e+00
-4.494551939000236e-01 3.491241932818238e-01 1.218848417934149e+00
-4.496586183769488e-01 3.494129694695856e-01 1.318324506351669e+00
-4.497647849990248e-01 3.496407562471207e-01 1.418208368588149e+00
-4.495925190951661e-01 4.495925190951661e-01 1.119818721877755e+00
-4.496482034763238e-01 4.496482034763237e-01 1.218941221354661e+00
-4.497533227801273e-01 4.497533227801272e-01 1.318419828990366e+00
-4.498453220301911e-01 4.498453220301913e-01 1.418253310506050e+00
-3.490964545500546e-01 -4.492903947654537e-01 1.119870514826670e+00
-3.491241932818239e-01 -4.494551939000235e-01 1.218848417934149e+00
-3.494129694695854e-01 -4.496586183769488e-01 1.318324506351669e+00
-3.496407562471207e-01 -4.497647849990249e-01 1.418208368588149e+00
-3.483221625278328e-01 -3.483221625278329e-01 1.119180578647008e+00
-3.489733676467400e-01 -3.489733676467401e-01 1.218581597511612e+00
-3.495047891363731e-01 -3.495047891363730e-01 1.318399261625969e+00
-3.496957535373848e-01 -3.496957535373848e-01 1.418396482876329e+00
-3.473425927553824e-01 -2.473921395001121e-01 1.118464608538433e+00
-3.487664112204051e-01 -2.477579483635598e-01 1.218530596037354e+00
-3.496337326702226e-01 -2.482322538557645e-01 1.318845741975398e+00
-3.499882874030748e-01 -2.486806687910473e-01 1.418759649457845e+00
-3.463498086565422e-01 -1.473313387638042e-01 1.118549869829441e+00
-3.481513895854146e-01 -1.475372769185629e-01 1.219204699925380e+00
-3.491659346390281e-01 -1.478358605101748e-01 1.319563888597044e+00
-3.494621367286930e-01 -1.482761668046355e-01 1.418906561537330e+00
-3.453318115568128e-01 -4.875301029311876e-02 1.118461044132616e+00
[...]
  <PointData>
        <DataArray type="Float64" Name="acceleration" NumberOfComponents="3" format="ascii">
2.118026842676734e-02 2.118026842674434e-02 7.700148330622122e-01
3.325391317601752e-02 7.691580803983604e-02 7.691366360010762e-01
-6.980989400473742e-02 1.007067732334953e-01 7.570660704793468e-01
-2.485075451250821e-01 6.588683308817010e-02 7.476853220888577e-01
-3.889153278096244e-01 2.484046149889704e-02 7.537021748887139e-01
-3.889153278096103e-01 -2.484046149896989e-02 7.537021748887009e-01
-2.485075451250087e-01 -6.588683308807451e-02 7.476853220889361e-01
-6.980989400461257e-02 -1.007067732333131e-01 7.570660704793570e-01
3.325391317624653e-02 -7.691580803988875e-02 7.691366360009846e-01
2.118026842685574e-02 -2.118026842688987e-02 7.700148330622443e-01
7.691580803967524e-02 3.325391317594344e-02 7.691366360012506e-01
8.958737834033281e-02 8.958737834056968e-02 7.749839403593047e-01
3.849194602468872e-01 1.487399260986439e-01 6.974717288054980e-01
8.532423713967028e-01 1.242795438693295e-01 6.061869896768473e-01
1.209802872243346e+00 4.467837704449762e-02 5.586651560388454e-01
1.209802872243438e+00 -4.467837704439595e-02 5.586651560388081e-01
8.532423713969437e-01 -1.242795438692003e-01 6.061869896768179e-01
3.849194602471084e-01 -1.487399260984520e-01 6.974717288054254e-01
8.958737834052921e-02 -8.958737834068364e-02 7.749839403590815e-01
7.691580803977129e-02 -3.325391317621140e-02 7.691366360011895e-01
1.007067732331953e-01 -6.980989400494239e-02 7.570660704798609e-01
1.487399260985339e-01 3.849194602471835e-01 6.974717288058113e-01
5.461167877531907e-01 5.461167877533054e-01 5.677212739202693e-01
3.299073885634429e-02 3.638689541847461e-01 4.069363238849988e-01
-3.815110366555503e-01 1.761381145305498e-01 3.915616490981808e-01
-3.815110366555911e-01 -1.761381145303598e-01 3.915616490981026e-01
3.299073885627457e-02 -3.638689541845738e-01 4.069363238848611e-01
5.461167877530524e-01 -5.461167877531534e-01 5.677212739201476e-01
1.487399260983886e-01 -3.849194602472172e-01 6.974717288055456e-01
1.007067732332109e-01 6.980989400454063e-02 7.570660704796586e-01
6.588683308834453e-02 -2.485075451249973e-01 7.476853220895466e-01
1.242795438695817e-01 8.532423713970477e-01 6.061869896772054e-01
3.638689541848140e-01 3.299073885636417e-02 4.069363238851560e-01
3.638689541845914e-01 -3.299073885632720e-02 4.069363238850006e-01
1.242795438692821e-01 -8.532423713970573e-01 6.061869896770475e-01
6.588683308811859e-02 2.485075451248607e-01 7.476853220894086e-01
2.484046149921992e-02 -3.889153278095376e-01 7.537021748892763e-01
4.467837704460004e-02 1.209802872243432e+00 5.586651560392091e-01
1.761381145304888e-01 -3.815110366556046e-01 3.915616490984632e-01
1.761381145304142e-01 3.815110366556375e-01 3.915616490983052e-01
4.467837704450972e-02 -1.209802872243521e+00 5.586651560390790e-01
2.484046149916883e-02 3.889153278095705e-01 7.537021748892628e-01
-2.484046149904915e-02 -3.889153278096275e-01 7.537021748892477e-01
-4.467837704463576e-02 1.209802872243370e+00 5.586651560392424e-01
-1.761381145305774e-01 -3.815110366556146e-01 3.915616490984988e-01
-1.761381145306504e-01 3.815110366555584e-01 3.915616490985219e-01
-4.467837704463240e-02 -1.209802872243374e+00 5.586651560393272e-01
-2.484046149896057e-02 3.889153278096663e-01 7.537021748894153e-01
-6.588683308816519e-02 -2.485075451252190e-01 7.476853220895303e-01
-1.242795438694988e-01 8.532423713967972e-01 6.061869896774761e-01
-3.638689541848554e-01 3.299073885640325e-02 4.069363238854722e-01
-3.638689541848052e-01 -3.299073885637915e-02 4.069363238855690e-01
-1.242795438693227e-01 -8.532423713967267e-01 6.061869896777294e-01
-6.588683308809400e-02 2.485075451251072e-01 7.476853220899979e-01
-1.007067732332529e-01 -6.980989400496929e-02 7.570660704798018e-01
-1.487399260983773e-01 3.849194602469248e-01 6.974717288060488e-01
-5.461167877530869e-01 5.461167877531192e-01 5.677212739208173e-01
-3.299073885639781e-02 3.638689541847807e-01 4.069363238857111e-01
3.815110366554729e-01 1.761381145304973e-01 3.915616490989926e-01
3.815110366553554e-01 -1.761381145306727e-01 3.915616490991081e-01
-3.299073885662218e-02 -3.638689541847370e-01 4.069363238859047e-01
-5.461167877533104e-01 -5.461167877529802e-01 5.677212739209994e-01
-1.487399260984861e-01 -3.849194602468243e-01 6.974717288064626e-01
-1.007067732333069e-01 6.980989400480989e-02 7.570660704806463e-01
-7.691580803985797e-02 3.325391317599112e-02 7.691366360012690e-01
-8.958737834048625e-02 8.958737834040453e-02 7.749839403595636e-01
-3.849194602470177e-01 1.487399260984444e-01 6.974717288061882e-01
-8.532423713968027e-01 1.242795438693613e-01 6.061869896778183e-01
-1.209802872243486e+00 4.467837704445587e-02 5.586651560398774e-01
-1.209802872243425e+00 -4.467837704468722e-02 5.586651560400986e-01
-8.532423713967853e-01 -1.242795438694131e-01 6.061869896782761e-01
-3.849194602470316e-01 -1.487399260983183e-01 6.974717288068311e-01
-8.958737834068026e-02 -8.958737834030389e-02 7.749839403604943e-01
-7.691580803996398e-02 -3.325391317596535e-02 7.691366360026319e-01
-2.118026842688544e-02 2.118026842681073e-02 7.700148330622936e-01
-3.325391317608822e-02 7.691580803971217e-02 7.691366360014867e-01
6.980989400484128e-02 1.007067732333813e-01 7.570660704801466e-01
2.485075451252181e-01 6.588683308814451e-02 7.476853220899875e-01
3.889153278097087e-01 2.484046149888690e-02 7.537021748900798e-01
3.889153278097516e-01 -2.484046149894351e-02 7.537021748902948e-01
2.485075451253178e-01 -6.588683308814493e-02 7.476853220906471e-01
6.980989400505647e-02 -1.007067732333566e-01 7.570660704811707e-01
-3.325391317591787e-02 -7.691580803975619e-02 7.691366360028939e-01
-2.118026842677647e-02 -2.118026842669728e-02 7.700148330641613e-01
2.302897395857614e-02 2.302897395856873e-02 8.043212789879141e-01
5.531660127821857e-03 5.531660127934625e-03 3.704477460062631e-01
-2.200761535602689e-02 -2.200761535585639e-02 -3.700197958271637e-02
-3.612974879364395e-02 -3.612974879356272e-02 -2.870362093203120e-01
7.221983485963297e-02 9.319012958298709e-02 7.629959719656804e-01
7.022220540630876e-02 3.652481690225075e-02 3.262921260020546e-01
2.389456505712370e-02 -4.728644091370089e-02 -7.441442188152160e-02
-2.189011812579142e-02 -1.046485393113477e-01 -2.946432343082305e-01
-7.341551943320569e-02 1.207322288900156e-01 7.026357833679464e-01
-6.941128231036900e-02 5.302281615363682e-02 2.571484167774553e-01
-6.790674111232320e-02 -4.983178498950355e-02 -1.426939345013103e-01
-5.438937683600904e-02 -1.305435232724550e-01 -3.277427923689232e-01
-3.599704225330676e-01 8.129102302655682e-02 6.521229481055226e-01
-3.774680529611760e-01 2.991959829753952e-02 1.957087822520482e-01
-2.897088127959868e-01 -5.312928964480555e-02 -2.090227252798235e-01
-1.413890544520545e-01 -1.189864517142739e-01 -3.633392856057001e-01
-5.815894520952960e-01 2.909280093036064e-02 6.322659546484655e-01
-6.282778434281449e-01 9.764968420627299e-03 1.564164868088337e-01
-4.854160169086982e-01 -2.656100028577136e-02 -2.547076727348124e-01
-2.256376713591468e-01 -5.537252727738955e-02 -3.873160905922093e-01
-5.815894520952880e-01 -2.909280093043660e-02 6.322659546484598e-01
-6.282778434281108e-01 -9.764968420685149e-03 1.564164868088365e-01
-4.854160169086599e-01 2.656100028569452e-02 -2.547076727347722e-01
-2.256376713590761e-01 5.537252727738986e-02 -3.873160905921449e-01
-3.599704225330005e-01 -8.129102302636361e-02 6.521229481056368e-01
-3.774680529610806e-01 -2.991959829725863e-02 1.957087822520193e-01
-2.897088127959421e-01 5.312928964502006e-02 -2.090227252798782e-01
-1.413890544519798e-01 1.189864517142690e-01 -3.633392856057302e-01
-7.341551943310912e-02 -1.207322288899759e-01 7.026357833680402e-01
-6.941128231027717e-02 -5.302281615357522e-02 2.571484167775410e-01
-6.790674111225323e-02 4.983178498966930e-02 -1.426939345014599e-01
-5.438937683597930e-02 1.305435232725481e-01 -3.277427923691426e-01
7.221983485976458e-02 -9.319012958307805e-02 7.629959719656438e-01
7.022220540643707e-02 -3.652481690241617e-02 3.262921260021901e-01
2.389456505728712e-02 4.728644091352601e-02 -7.441442188161013e-02
-2.189011812575666e-02 1.046485393113160e-01 -2.946432343083585e-01
2.302897395861799e-02 -2.302897395863615e-02 8.043212789878906e-01
5.531660127893705e-03 -5.531660128046970e-03 3.704477460062887e-01
-2.200761535591688e-02 2.200761535573354e-02 -3.700197958275361e-02
-3.612974879360024e-02 3.612974879350936e-02 -2.870362093203015e-01
9.319012958287533e-02 7.221983485960637e-02 7.629959719656438e-01
3.652481690223624e-02 7.022220540631853e-02 3.262921260020374e-01
-4.728644091362107e-02 2.389456505712999e-02 -7.441442188144948e-02
-1.046485393112426e-01 -2.189011812578486e-02 -2.946432343081198e-01
1.071684192461655e-01 1.071684192463311e-01 7.523735249091434e-01
5.641791873134822e-02 5.641791873147682e-02 3.033524255743138e-01
-2.479524204478264e-02 -2.479524204467965e-02 -1.322197247943186e-01
-1.099750686680854e-01 -1.099750686681067e-01 -3.333713265509816e-01
4.000164776611199e-01 8.780282279672721e-02 6.344161978400052e-01
2.771191235580017e-01 -3.231568949018623e-02 2.736758870125817e-01
1.437448689765275e-01 -1.047113869660668e-01 -1.692556440964098e-01
-9.267550034468093e-02 -1.769683291127004e-01 -3.757737740220349e-01
8.954934324416808e-01 4.712994818662655e-02 4.897077285057999e-01
6.708924939777869e-01 -7.647992691894567e-02 2.335715830501022e-01
4.086219310176955e-01 -1.503008141206042e-01 -1.848278526461415e-01
-7.728506515571743e-02 -1.964501462923643e-01 -4.012460749355715e-01
1.255921974357026e+00 -2.692891712513516e-03 3.918028949441648e-01
9.541225236949318e-01 -6.690019982069755e-02 1.830872096754315e-01
5.762433245929516e-01 -1.057431726151988e-01 -1.945666553477258e-01
-9.726530284408424e-02 -1.148610192941520e-01 -3.951978116232212e-01
1.255921974357086e+00 2.692891712568327e-03 3.918028949441155e-01
9.541225236949411e-01 6.690019982071742e-02 1.830872096754457e-01
5.762433245929477e-01 1.057431726152174e-01 -1.945666553476742e-01
-9.726530284410710e-02 1.148610192942593e-01 -3.951978116231515e-01
8.954934324418093e-01 -4.712994818641789e-02 4.897077285057667e-01
6.708924939777169e-01 7.647992691915262e-02 2.335715830500202e-01
4.086219310176377e-01 1.503008141207073e-01 -1.848278526461706e-01
-7.728506515573677e-02 1.964501462923166e-01 -4.012460749355325e-01
4.000164776612752e-01 -8.780282279668349e-02 6.344161978399501e-01
2.771191235579242e-01 3.231568949029323e-02 2.736758870125992e-01
1.437448689764352e-01 1.047113869663144e-01 -1.692556440965374e-01
-9.267550034468515e-02 1.769683291127870e-01 -3.757737740221852e-01
1.071684192462758e-01 -1.071684192465100e-01 7.523735249089867e-01
5.641791873133616e-02 -5.641791873160901e-02 3.033524255745157e-01
-2.479524204477110e-02 2.479524204459625e-02 -1.322197247944307e-01
-1.099750686680902e-01 1.099750686680415e-01 -3.333713265512158e-01
9.319012958289014e-02 -7.221983485972260e-02 7.629959719656018e-01
3.652481690223219e-02 -7.022220540651991e-02 3.262921260021531e-01
-4.728644091357689e-02 -2.389456505741716e-02 -7.441442188151569e-02
-1.046485393112689e-01 2.189011812570330e-02 -2.946432343082251e-01
1.207322288898999e-01 -7.341551943332442e-02 7.026357833682024e-01
5.302281615378730e-02 -6.941128231047204e-02 2.571484167775996e-01
-4.983178498927625e-02 -6.790674111252563e-02 -1.426939345012003e-01
-1.305435232722441e-01 -5.438937683606837e-02 -3.277427923689211e-01
8.780282279667362e-02 4.000164776612874e-01 6.344161978402206e-01
-3.231568949014697e-02 2.771191235580147e-01 2.736758870126045e-01
-1.047113869659866e-01 1.437448689764783e-01 -1.692556440963467e-01
-1.769683291125280e-01 -9.267550034477819e-02 -3.757737740219548e-01
5.799682133454266e-01 5.799682133454946e-01 4.578386508698065e-01
3.467104430854581e-01 3.467104430855086e-01 2.158340109960993e-01
1.060053026646939e-01 1.060053026647210e-01 -3.725376503667718e-01
-2.745446504771518e-01 -2.745446504772578e-01 -6.780164667084916e-01
-1.007697680752589e-01 4.115466803499397e-01 3.256631426866883e-01
-4.573366757493244e-01 2.436619764241583e-01 9.953784475002106e-02
-7.823990672522019e-01 8.201037468055415e-04 -5.957178822373432e-01
-1.118334813586959e+00 -3.478342136051220e-01 -8.880256674642090e-01
-5.212791120008956e-01 2.719951656949417e-01 2.496418244013519e-01
-9.254475084555581e-01 1.972949529230980e-01 -9.967173355931711e-04
-1.286794090413852e+00 8.092972575891369e-02 -7.895517896897275e-01
-1.593647677412874e+00 -1.117746982543407e-01 -1.092000019727120e+00
-5.212791120009412e-01 -2.719951656948855e-01 2.496418244012636e-01
-9.254475084556143e-01 -1.972949529231674e-01 -9.967173356112610e-04
-1.286794090413925e+00 -8.092972575900727e-02 -7.895517896896992e-01
-1.593647677412919e+00 1.117746982543259e-01 -1.092000019727072e+00
-1.007697680753747e-01 -4.115466803497147e-01 3.256631426864908e-01
-4.573366757494417e-01 -2.436619764240072e-01 9.953784474988718e-02
-7.823990672522937e-01 -8.201037467323593e-04 -5.957178822373365e-01
-1.118334813586983e+00 3.478342136051185e-01 -8.880256674641385e-01
5.799682133452502e-01 -5.799682133454275e-01 4.578386508695821e-01
3.467104430852625e-01 -3.467104430853888e-01 2.158340109959929e-01
1.060053026644729e-01 -1.060053026645263e-01 -3.725376503668451e-01
-2.745446504772385e-01 2.745446504773390e-01 -6.780164667085242e-01
8.780282279655419e-02 -4.000164776614685e-01 6.344161978399108e-01
-3.231568949034287e-02 -2.771191235581164e-01 2.736758870126557e-01
-1.047113869662999e-01 -1.437448689764760e-01 -1.692556440964003e-01
-1.769683291126566e-01 9.267550034471685e-02 -3.757737740221075e-01
1.207322288898712e-01 7.341551943317688e-02 7.026357833680105e-01
5.302281615368817e-02 6.941128231038483e-02 2.571484167776942e-01
-4.983178498940569e-02 6.790674111235467e-02 -1.426939345012405e-01
-1.305435232723120e-01 5.438937683606732e-02 -3.277427923690449e-01
8.129102302654982e-02 -3.599704225330619e-01 6.521229481058903e-01
2.991959829743729e-02 -3.774680529612477e-01 1.957087822522652e-01
-5.312928964489935e-02 -2.897088127961348e-01 -2.090227252796409e-01
-1.189864517141877e-01 -1.413890544520662e-01 -3.633392856056661e-01
4.712994818665166e-02 8.954934324418811e-01 4.897077285058922e-01
-7.647992691906634e-02 6.708924939777042e-01 2.335715830501605e-01
-1.503008141206046e-01 4.086219310175877e-01 -1.848278526459386e-01
-1.964501462922291e-01 -7.728506515583189e-02 -4.012460749354396e-01
4.115466803499325e-01 -1.007697680752195e-01 3.256631426866121e-01
2.436619764240427e-01 -4.573366757493004e-01 9.953784475000843e-02
8.201037468326463e-04 -7.823990672522261e-01 -5.957178822371643e-01
-3.478342136049301e-01 -1.118334813587095e+00 -8.880256674641597e-01
4.115466803496521e-01 1.007697680752567e-01 3.256631426865199e-01
2.436619764239780e-01 4.573366757493629e-01 9.953784474997171e-02
8.201037467560146e-04 7.823990672522284e-01 -5.957178822372283e-01
-3.478342136050356e-01 1.118334813587069e+00 -8.880256674640546e-01
4.712994818645676e-02 -8.954934324419214e-01 4.897077285058110e-01
-7.647992691904795e-02 -6.708924939777332e-01 2.335715830501312e-01
-1.503008141206747e-01 -4.086219310175626e-01 -1.848278526460229e-01
-1.964501462922933e-01 7.728506515580603e-02 -4.012460749353835e-01
8.129102302648343e-02 3.599704225330564e-01 6.521229481058060e-01
2.991959829747202e-02 3.774680529612381e-01 1.957087822523029e-01
-5.312928964492537e-02 2.897088127961661e-01 -2.090227252796939e-01
-1.189864517141628e-01 1.413890544521499e-01 -3.633392856056669e-01
2.909280093047166e-02 -5.815894520953836e-01 6.322659546484916e-01
9.764968420511505e-03 -6.282778434283022e-01 1.564164868089491e-01
-2.656100028590333e-02 -4.854160169088343e-01 -2.547076727345435e-01
-5.537252727753805e-02 -2.256376713592276e-01 -3.873160905920973e-01
-2.692891712563843e-03 1.255921974357113e+00 3.918028949440008e-01
-6.690019982083631e-02 9.541225236948804e-01 1.830872096754976e-01
-1.057431726153303e-01 5.762433245929204e-01 -1.945666553474184e-01
-1.148610192943441e-01 -9.726530284410288e-02 -3.951978116230623e-01
2.719951656948088e-01 -5.212791120008344e-01 2.496418244012235e-01
1.972949529230167e-01 -9.254475084554772e-01 -9.967173355684140e-04
8.092972575886567e-02 -1.286794090413834e+00 -7.895517896894216e-01
-1.117746982543679e-01 -1.593647677412917e+00 -1.092000019726970e+00
2.719951656947555e-01 5.212791120008609e-01 2.496418244011777e-01
1.972949529229447e-01 9.254475084555690e-01 -9.967173355193999e-04
8.092972575880654e-02 1.286794090413829e+00 -7.895517896895925e-01
-1.117746982545093e-01 1.593647677412918e+00 -1.092000019726922e+00
-2.692891712592999e-03 -1.255921974357059e+00 3.918028949440838e-01
-6.690019982083185e-02 -9.541225236947974e-01 1.830872096755393e-01
-1.057431726153175e-01 -5.762433245928072e-01 -1.945666553476070e-01
-1.148610192943640e-01 9.726530284427667e-02 -3.951978116229860e-01
2.909280093049935e-02 5.815894520954004e-01 6.322659546485816e-01
9.764968420562500e-03 6.282778434281958e-01 1.564164868089829e-01
-2.656100028585070e-02 4.854160169088078e-01 -2.547076727346016e-01
-5.537252727743822e-02 2.256376713592366e-01 -3.873160905920395e-01
-2.909280093037498e-02 -5.815894520954065e-01 6.322659546483822e-01
-9.764968420589618e-03 -6.282778434282689e-01 1.564164868088963e-01
2.656100028567973e-02 -4.854160169087854e-01 -2.547076727346029e-01
5.537252727720622e-02 -2.256376713592357e-01 -3.873160905921343e-01
2.692891712544977e-03 1.255921974357022e+00 3.918028949439907e-01
6.690019982080590e-02 9.541225236948833e-01 1.830872096755046e-01
1.057431726152058e-01 5.762433245929351e-01 -1.945666553474987e-01
1.148610192940853e-01 -9.726530284407872e-02 -3.951978116231086e-01
-2.719951656949789e-01 -5.212791120008893e-01 2.496418244012248e-01
-1.972949529231030e-01 -9.254475084555210e-01 -9.967173355147864e-04
-8.092972575898756e-02 -1.286794090413862e+00 -7.895517896895022e-01
1.117746982542068e-01 -1.593647677412861e+00 -1.092000019726953e+00
-2.719951656950395e-01 5.212791120008460e-01 2.496418244011762e-01
-1.972949529232057e-01 9.254475084555381e-01 -9.967173355150682e-04
-8.092972575901677e-02 1.286794090413790e+00 -7.895517896895582e-01
1.117746982543207e-01 1.593647677412857e+00 -1.092000019726953e+00
2.692891712513292e-03 -1.255921974356902e+00 3.918028949440745e-01
6.690019982067601e-02 -9.541225236947135e-01 1.830872096754831e-01
1.057431726151198e-01 -5.762433245927596e-01 -1.945666553475902e-01
1.148610192941527e-01 9.726530284431562e-02 -3.951978116230178e-01
-2.909280093035407e-02 5.815894520954200e-01 6.322659546484670e-01
-9.764968420611744e-03 6.282778434281966e-01 1.564164868088998e-01
2.656100028567135e-02 4.854160169087871e-01 -2.547076727346061e-01
5.537252727722346e-02 2.256376713591856e-01 -3.873160905920910e-01
-8.129102302636712e-02 -3.599704225331676e-01 6.521229481057226e-01
-2.991959829726439e-02 -3.774680529612887e-01 1.957087822520131e-01
5.312928964490018e-02 -2.897088127961435e-01 -2.090227252798713e-01
1.189864517141690e-01 -1.413890544521387e-01 -3.633392856056670e-01
-4.712994818652780e-02 8.954934324416609e-01 4.897077285059542e-01
7.647992691909794e-02 6.708924939776432e-01 2.335715830500265e-01
1.503008141205168e-01 4.086219310176593e-01 -1.848278526461324e-01
1.964501462921702e-01 -7.728506515570115e-02 -4.012460749354285e-01
-4.115466803498200e-01 -1.007697680753105e-01 3.256631426866907e-01
-2.436619764240872e-01 -4.573366757493809e-01 9.953784475000622e-02
-8.201037468790365e-04 -7.823990672521652e-01 -5.957178822372297e-01
3.478342136049953e-01 -1.118334813586850e+00 -8.880256674640212e-01
-4.115466803499787e-01 1.007697680752889e-01 3.256631426865984e-01
-2.436619764240323e-01 4.573366757493467e-01 9.953784475012947e-02
-8.201037466268740e-04 7.823990672521632e-01 -5.957178822371576e-01
3.478342136051870e-01 1.118334813586950e+00 -8.880256674640759e-01
-4.712994818657825e-02 -8.954934324414746e-01 4.897077285058831e-01
7.647992691910654e-02 -6.708924939774663e-01 2.335715830500904e-01
1.503008141208195e-01 -4.086219310175131e-01 -1.848278526460404e-01