<?xml version="1.0" ?> 
<!-- 
# vtk DataFile Version 3.0
-->
<VTKFile type="UnstructuredGrid" version="0.1" compressor="vtkZLibDataCompressor" byte_order="LittleEndian">
  <UnstructuredGrid>
    <FieldData>
      <DataArray type="Float64" Name="TIME" NumberOfTuples="1" format="ascii">
0.000000000000000e+00 
      </DataArray>
    </FieldData>

    <Piece NumberOfPoints="252" NumberOfCells="0" >
      <Points>
        <DataArray type="Float64" NumberOfComponents="3" format="ascii">
-4.500000000000000e-01 -4.500000000000000e-01 1.000000000000000e+00
-4.500000000000001e-01 -3.500000000000000e-01 1.000000000000000e+00
-4.500000000000000e-01 -2.500000000000000e-01 1.000000000000000e+00
-3.500000000000000e-01 -4.500000000000001e-01 1.000000000000000e+00
-3.500000000000000e-01 -3.500000000000000e-01 1.000000000000000e+00
-3.500000000000000e-01 -2.500000000000000e-01 1.000000000000000e+00
-2.500000000000000e-01 -4.500000000000000e-01 1.000000000000000e+00
-2.500000000000000e-01 -3.500000000000000e-01 1.000000000000000e+00
-2.500000000000000e-01 -2.500000000000000e-01 1.000000000000000e+00
-1.500000000000000e-01 -4.500000000000000e-01 1.000000000000000e+00
-1.500000000000000e-01 -3.500000000000000e-01 9.999999999999999e-01
-1.500000000000000e-01 -2.500000000000000e-01 1.000000000000000e+00
-4.999999999999999e-02 -4.500000000000000e-01 1.000000000000000e+00
-4.999999999999999e-02 -3.500000000000000e-01 1.000000000000000e+00
-4.999999999999999e-02 -2.500000000000000e-01 1.000000000000000e+00
-4.500000000000000e-01 2.500000000000001e-01 1.000000000000000e+00
-4.500000000000001e-01 3.500000000000000e-01 1.000000000000000e+00
-4.500000000000001e-01 3.500000000000000e-01 1.000000000000000e+00
-4.500000000000000e-01 4.500000000000000e-01 1.000000000000000e+00
-4.500000000000000e-01 4.500000000000000e-01 1.000000000000000e+00
-3.500000000000000e-01 2.500000000000001e-01 1.000000000000000e+00
-3.500000000000000e-01 2.500000000000001e-01 1.000000000000000e+00
-3.500000000000000e-01 3.500000000000000e-01 1.000000000000000e+00
-3.500000000000000e-01 3.500000000000000e-01 1.000000000000000e+00
-4.500000000000000e-01 -1.500000000000000e-01 1.000000000000000e+00
-4.500000000000000e-01 -4.999999999999999e-02 1.000000000000000e+00
-3.500000000000000e-01 4.500000000000001e-01 1.000000000000000e+00
-3.500000000000000e-01 4.500000000000001e-01 1.000000000000000e+00
-3.500000000000000e-01 -1.500000000000000e-01 1.000000000000000e+00
-3.500000000000000e-01 -4.999999999999999e-02 1.000000000000000e+00
-2.500000000000000e-01 2.500000000000000e-01 1.000000000000000e+00
-2.500000000000000e-01 2.500000000000000e-01 1.000000000000000e+00
-2.500000000000000e-01 -1.500000000000000e-01 9.999999999999999e-01
-2.500000000000000e-01 -4.999999999999999e-02 1.000000000000000e+00
-2.500000000000000e-01 3.500000000000000e-01 1.000000000000000e+00
-2.500000000000000e-01 3.500000000000000e-01 1.000000000000000e+00
-2.500000000000000e-01 4.500000000000000e-01 1.000000000000000e+00
-2.500000000000000e-01 4.500000000000000e-01 1.000000000000000e+00
-1.500000000000000e-01 2.500000000000001e-01 9.999999999999999e-01
-1.500000000000000e-01 2.500000000000001e-01 9.999999999999999e-01
-1.500000000000000e-01 3.500000000000000e-01 1.000000000000000e+00
-1.500000000000000e-01 3.500000000000000e-01 1.000000000000000e+00
-1.500000000000000e-01 4.500000000000000e-01 1.000000000000000e+00
-1.500000000000000e-01 4.500000000000000e-01 1.000000000000000e+00
-4.999999999999999e-02 2.500000000000001e-01 1.000000000000000e+00
-4.999999999999999e-02 2.500000000000001e-01 1.000000000000000e+00
-4.999999999999999e-02 3.500000000000000e-01 1.000000000000000e+00
-4.999999999999999e-02 3.500000000000000e-01 1.000000000000000e+00
-4.999999999999999e-02 4.500000000000000e-01 1.000000000000000e+00
-4.999999999999999e-02 4.500000000000000e-01 1.000000000000000e+00
1.500000000000001e-01 4.500000000000000e-01 1.000000000000000e+00
2.500000000000000e-01 2.500000000000000e-01 1.000000000000000e+00
2.500000000000001e-01 3.500000000000000e-01 1.000000000000000e+00
2.500000000000001e-01 4.500000000000000e-01 1.000000000000000e+00
2.500000000000001e-01 -1.500000000000000e-01 1.000000000000000e+00
2.500000000000001e-01 -1.500000000000000e-01 1.000000000000000e+00
-4.500000000000000e-01 -4.500000000000000e-01 1.000000000000000e+00
-4.500000000000000e-01 -4.500000000000000e-01 1.000000000000000e+00
-4.500000000000001e-01 -3.500000000000000e-01 1.000000000000000e+00
-4.500000000000001e-01 -3.500000000000000e-01 1.000000000000000e+00
-4.500000000000000e-01 -2.500000000000000e-01 1.000000000000000e+00
-4.500000000000000e-01 -2.500000000000000e-01 1.000000000000000e+00
-3.500000000000000e-01 -4.500000000000001e-01 1.000000000000000e+00
-3.500000000000000e-01 -4.500000000000001e-01 1.000000000000000e+00
-3.500000000000000e-01 -3.500000000000000e-01 1.000000000000000e+00
-3.500000000000000e-01 -3.500000000000000e-01 1.000000000000000e+00
-3.500000000000000e-01 -2.500000000000000e-01 1.000000000000000e+00
-3.500000000000000e-01 -2.500000000000000e-01 1.000000000000000e+00
-2.500000000000000e-01 -4.500000000000000e-01 1.000000000000000e+00
-2.500000000000000e-01 -4.500000000000000e-01 1.000000000000000e+00
-2.500000000000000e-01 -3.500000000000000e-01 1.000000000000000e+00
-2.500000000000000e-01 -3.500000000000000e-01 1.000000000000000e+00
-2.500000000000000e-01 -2.500000000000000e-01 1.000000000000000e+00
-2.500000000000000e-01 -2.500000000000000e-01 1.000000000000000e+00
-1.500000000000000e-01 -4.500000000000000e-01 1.000000000000000e+00
-1.500000000000000e-01 -4.500000000000000e-01 1.000000000000000e+00
-1.500000000000000e-01 -3.500000000000000e-01 9.999999999999999e-01
-1.500000000000000e-01 -3.500000000000000e-01 9.999999999999999e-01
-1.500000000000000e-01 -2.500000000000000e-01 1.000000000000000e+00
-1.500000000000000e-01 -2.500000000000000e-01 1.000000000000000e+00
-4.999999999999999e-02 -4.500000000000000e-01 1.000000000000000e+00
-4.999999999999999e-02 -4.500000000000000e-01 1.000000000000000e+00
-4.999999999999999e-02 -3.500000000000000e-01 1.000000000000000e+00
-4.999999999999999e-02 -3.500000000000000e-01 1.000000000000000e+00
-4.999999999999999e-02 -2.500000000000000e-01 1.000000000000000e+00
-4.999999999999999e-02 -2.500000000000000e-01 1.000000000000000e+00
2.500000000000001e-01 -4.999999999999999e-02 1.000000000000000e+00
2.500000000000001e-01 -4.999999999999999e-02 1.000000000000000e+00
3.500000000000000e-01 2.500000000000001e-01 1.000000000000000e+00
3.500000000000000e-01 3.500000000000000e-01 1.000000000000000e+00
3.500000000000000e-01 4.500000000000001e-01 1.000000000000000e+00
4.500000000000000e-01 2.500000000000001e-01 1.000000000000000e+00
3.500000000000000e-01 -1.500000000000000e-01 1.000000000000000e+00
3.500000000000000e-01 -1.500000000000000e-01 1.000000000000000e+00
3.500000000000000e-01 -4.999999999999999e-02 1.000000000000000e+00
3.500000000000000e-01 -4.999999999999999e-02 1.000000000000000e+00
4.500000000000001e-01 3.500000000000000e-01 1.000000000000000e+00
4.500000000000000e-01 4.500000000000000e-01 1.000000000000000e+00
1.500000000000001e-01 3.500000000000000e-01 1.000000000000000e+00
1.500000000000001e-01 4.500000000000000e-01 1.000000000000000e+00
4.500000000000000e-01 -1.500000000000000e-01 9.999999999999999e-01
-4.500000000000000e-01 -1.500000000000000e-01 1.000000000000000e+00
-4.500000000000000e-01 -1.500000000000000e-01 1.000000000000000e+00
-4.500000000000000e-01 -4.999999999999999e-02 1.000000000000000e+00
-4.500000000000000e-01 -4.999999999999999e-02 1.000000000000000e+00
4.999999999999999e-02 -4.500000000000000e-01 1.000000000000000e+00
4.999999999999999e-02 -3.500000000000000e-01 1.000000000000000e+00
4.999999999999999e-02 -2.500000000000000e-01 1.000000000000000e+00
1.500000000000001e-01 -4.500000000000000e-01 9.999999999999999e-01
-3.500000000000000e-01 -1.500000000000000e-01 1.000000000000000e+00
-3.500000000000000e-01 -1.500000000000000e-01 1.000000000000000e+00
-3.500000000000000e-01 -4.999999999999999e-02 1.000000000000000e+00
-3.500000000000000e-01 -4.999999999999999e-02 1.000000000000000e+00
1.500000000000001e-01 -3.500000000000000e-01 1.000000000000000e+00
1.500000000000001e-01 -2.500000000000000e-01 1.000000000000000e+00
2.500000000000001e-01 -4.500000000000000e-01 1.000000000000000e+00
2.500000000000001e-01 -3.500000000000000e-01 1.000000000000000e+00
-2.500000000000000e-01 -1.500000000000000e-01 9.999999999999999e-01
-2.500000000000000e-01 -1.500000000000000e-01 9.999999999999999e-01
-2.500000000000000e-01 -4.999999999999999e-02 1.000000000000000e+00
-2.500000000000000e-01 -4.999999999999999e-02 1.000000000000000e+00
2.500000000000000e-01 -2.500000000000000e-01 1.000000000000000e+00
3.500000000000000e-01 -4.500000000000001e-01 1.000000000000000e+00
3.500000000000000e-01 -3.500000000000000e-01 1.000000000000000e+00
3.500000000000000e-01 -2.500000000000000e-01 1.000000000000000e+00
4.500000000000000e-01 -4.500000000000000e-01 1.000000000000000e+00
4.500000000000001e-01 -3.500000000000000e-01 1.000000000000000e+00
4.500000000000000e-01 -2.500000000000000e-01 1.000000000000000e+00
4.500000000000000e-01 -1.500000000000000e-01 9.999999999999999e-01
4.500000000000000e-01 -4.999999999999999e-02 1.000000000000000e+00
4.500000000000000e-01 -4.999999999999999e-02 1.000000000000000e+00
3.500000000000000e-01 4.999999999999999e-02 1.000000000000000e+00
3.500000000000000e-01 4.999999999999999e-02 1.000000000000000e+00
3.500000000000000e-01 1.500000000000001e-01 1.000000000000000e+00
3.500000000000000e-01 1.500000000000001e-01 1.000000000000000e+00
1.500000000000001e-01 4.500000000000000e-01 1.000000000000000e+00
2.500000000000000e-01 2.500000000000000e-01 1.000000000000000e+00
2.500000000000000e-01 2.500000000000000e-01 1.000000000000000e+00
2.500000000000001e-01 3.500000000000000e-01 1.000000000000000e+00
4.500000000000000e-01 4.999999999999999e-02 1.000000000000000e+00
4.500000000000000e-01 4.999999999999999e-02 1.000000000000000e+00
4.500000000000000e-01 1.500000000000001e-01 1.000000000000000e+00
4.500000000000000e-01 1.500000000000001e-01 1.000000000000000e+00
2.500000000000001e-01 3.500000000000000e-01 1.000000000000000e+00
2.500000000000001e-01 -1.500000000000000e-01 1.000000000000000e+00
2.500000000000001e-01 -4.999999999999999e-02 1.000000000000000e+00
2.500000000000001e-01 4.500000000000000e-01 1.000000000000000e+00
2.500000000000001e-01 4.500000000000000e-01 1.000000000000000e+00
3.500000000000000e-01 -1.500000000000000e-01 1.000000000000000e+00
3.500000000000000e-01 -4.999999999999999e-02 1.000000000000000e+00
3.500000000000000e-01 2.500000000000001e-01 1.000000000000000e+00
3.500000000000000e-01 2.500000000000001e-01 1.000000000000000e+00
4.500000000000000e-01 -1.500000000000000e-01 9.999999999999999e-01
4.500000000000000e-01 -4.999999999999999e-02 1.000000000000000e+00
3.500000000000000e-01 3.500000000000000e-01 1.000000000000000e+00
3.500000000000000e-01 3.500000000000000e-01 1.000000000000000e+00
3.500000000000000e-01 4.500000000000001e-01 1.000000000000000e+00
3.500000000000000e-01 4.500000000000001e-01 1.000000000000000e+00
4.500000000000000e-01 2.500000000000001e-01 1.000000000000000e+00
4.500000000000000e-01 2.500000000000001e-01 1.000000000000000e+00
4.500000000000001e-01 3.500000000000000e-01 1.000000000000000e+00
4.500000000000001e-01 3.500000000000000e-01 1.000000000000000e+00
-4.500000000000000e-01 4.999999999999999e-02 1.000000000000000e+00
-4.500000000000000e-01 1.500000000000001e-01 1.000000000000000e+00
4.500000000000000e-01 4.500000000000000e-01 1.000000000000000e+00
-3.500000000000000e-01 4.999999999999999e-02 1.000000000000000e+00
-3.500000000000000e-01 1.500000000000001e-01 1.000000000000000e+00
-2.500000000000000e-01 4.999999999999999e-02 1.000000000000000e+00
-2.500000000000000e-01 1.500000000000001e-01 1.000000000000000e+00
4.500000000000000e-01 4.500000000000000e-01 1.000000000000000e+00
4.999999999999999e-02 2.500000000000001e-01 1.000000000000000e+00
4.999999999999999e-02 2.500000000000001e-01 1.000000000000000e+00
4.999999999999999e-02 3.500000000000000e-01 1.000000000000000e+00
2.500000000000001e-01 4.999999999999999e-02 1.000000000000000e+00
2.500000000000001e-01 1.500000000000001e-01 9.999999999999999e-01
4.999999999999999e-02 -4.500000000000000e-01 1.000000000000000e+00
4.999999999999999e-02 -4.500000000000000e-01 1.000000000000000e+00
4.999999999999999e-02 -3.500000000000000e-01 1.000000000000000e+00
4.999999999999999e-02 -3.500000000000000e-01 1.000000000000000e+00
-4.500000000000000e-01 2.500000000000001e-01 1.000000000000000e+00
-4.500000000000001e-01 3.500000000000000e-01 1.000000000000000e+00
-4.500000000000000e-01 4.500000000000000e-01 1.000000000000000e+00
-3.500000000000000e-01 2.500000000000001e-01 1.000000000000000e+00
-3.500000000000000e-01 3.500000000000000e-01 1.000000000000000e+00
-3.500000000000000e-01 4.500000000000001e-01 1.000000000000000e+00
-2.500000000000000e-01 2.500000000000000e-01 1.000000000000000e+00
-2.500000000000000e-01 3.500000000000000e-01 1.000000000000000e+00
-2.500000000000000e-01 4.500000000000000e-01 1.000000000000000e+00
-1.500000000000000e-01 2.500000000000001e-01 9.999999999999999e-01
-1.500000000000000e-01 3.500000000000000e-01 1.000000000000000e+00
-1.500000000000000e-01 4.500000000000000e-01 1.000000000000000e+00
-4.999999999999999e-02 2.500000000000001e-01 1.000000000000000e+00
-4.999999999999999e-02 3.500000000000000e-01 1.000000000000000e+00
-4.999999999999999e-02 4.500000000000000e-01 1.000000000000000e+00
4.999999999999999e-02 -2.500000000000000e-01 1.000000000000000e+00
4.999999999999999e-02 -2.500000000000000e-01 1.000000000000000e+00
1.500000000000001e-01 -4.500000000000000e-01 9.999999999999999e-01
1.500000000000001e-01 -4.500000000000000e-01 9.999999999999999e-01
1.500000000000001e-01 -3.500000000000000e-01 1.000000000000000e+00
1.500000000000001e-01 -3.500000000000000e-01 1.000000000000000e+00
1.500000000000001e-01 -2.500000000000000e-01 1.000000000000000e+00
1.500000000000001e-01 -2.500000000000000e-01 1.000000000000000e+00
2.500000000000001e-01 -4.500000000000000e-01 1.000000000000000e+00
2.500000000000001e-01 -4.500000000000000e-01 1.000000000000000e+00
2.500000000000001e-01 -3.500000000000000e-01 1.000000000000000e+00
2.500000000000001e-01 -3.500000000000000e-01 1.000000000000000e+00
2.500000000000000e-01 -2.500000000000000e-01 1.000000000000000e+00
2.500000000000000e-01 -2.500000000000000e-01 1.000000000000000e+00
3.500000000000000e-01 -4.500000000000001e-01 1.000000000000000e+00
3.500000000000000e-01 -4.500000000000001e-01 1.000000000000000e+00
3.500000000000000e-01 -3.500000000000000e-01 1.000000000000000e+00
3.500000000000000e-01 -3.500000000000000e-01 1.000000000000000e+00
3.500000000000000e-01 -2.500000000000000e-01 1.000000000000000e+00
-4.500000000000000e-01 4.999999999999999e-02 1.000000000000000e+00
-4.500000000000000e-01 4.999999999999999e-02 1.000000000000000e+00
-4.500000000000000e-01 1.500000000000001e-01 1.000000000000000e+00
-4.500000000000000e-01 1.500000000000001e-01 1.000000000000000e+00
3.500000000000000e-01 -2.500000000000000e-01 1.000000000000000e+00
4.500000000000000e-01 -4.500000000000000e-01 1.000000000000000e+00
4.500000000000000e-01 -4.500000000000000e-01 1.000000000000000e+00
4.500000000000001e-01 -3.500000000000000e-01 1.000000000000000e+00
-3.500000000000000e-01 4.999999999999999e-02 1.000000000000000e+00
-3.500000000000000e-01 4.999999999999999e-02 1.000000000000000e+00
-3.500000000000000e-01 1.500000000000001e-01 1.000000000000000e+00
-3.500000000000000e-01 1.500000000000001e-01 1.000000000000000e+00
4.500000000000001e-01 -3.500000000000000e-01 1.000000000000000e+00
4.500000000000000e-01 -2.500000000000000e-01 1.000000000000000e+00
4.500000000000000e-01 -2.500000000000000e-01 1.000000000000000e+00
-2.500000000000000e-01 4.999999999999999e-02 1.000000000000000e+00
-2.500000000000000e-01 4.999999999999999e-02 1.000000000000000e+00
-2.500000000000000e-01 1.500000000000001e-01 1.000000000000000e+00
-2.500000000000000e-01 1.500000000000001e-01 1.000000000000000e+00
3.500000000000000e-01 4.999999999999999e-02 1.000000000000000e+00
3.500000000000000e-01 1.500000000000001e-01 1.000000000000000e+00
4.999999999999999e-02 3.500000000000000e-01 1.000000000000000e+00
4.500000000000000e-01 4.999999999999999e-02 1.000000000000000e+00
4.500000000000000e-01 1.500000000000001e-01 1.000000000000000e+00
4.999999999999999e-02 4.500000000000000e-01 1.000000000000000e+00
4.999999999999999e-02 4.500000000000000e-01 1.000000000000000e+00
1.500000000000001e-01 2.500000000000001e-01 1.000000000000000e+00
2.500000000000001e-01 4.999999999999999e-02 1.000000000000000e+00
2.500000000000001e-01 4.999999999999999e-02 1.000000000000000e+00
2.500000000000001e-01 1.500000000000001e-01 9.999999999999999e-01
2.500000000000001e-01 1.500000000000001e-01 9.999999999999999e-01
1.500000000000001e-01 2.500000000000001e-01 1.000000000000000e+00
1.500000000000001e-01 3.500000000000000e-01 1.000000000000000e+00
4.999999999999999e-02 2.500000000000001e-01 1.000000000000000e+00
4.999999999999999e-02 3.500000000000000e-01 1.000000000000000e+00
4.999999999999999e-02 4.500000000000000e-01 1.000000000000000e+00
1.500000000000001e-01 2.500000000000001e-01 1.000000000000000e+00
1.500000000000001e-01 3.500000000000000e-01 1.000000000000000e+00
-4.500000000000000e-01 2.500000000000001e-01 1.000000000000000e+00
        </DataArray>
      </Points>

      <Cells>
        <DataArray type="Int32" Name="connectivity" format="ascii">

        </DataArray>
        <DataArray type="Int32" Name="offsets" format="ascii">

        </DataArray>
        <DataArray type="UInt8" Name="types" format="ascii">

        </DataArray>
      </Cells>

  <PointData>
        <DataArray type="Float64" Name="contact force" NumberOfComponents="3" format="ascii">
-5.637851296924624e-21 6.899591575154630e-20 -2.576193860891675e-03
-2.816770796644497e-18 -7.372574772901432e-21 -2.576193860891524e-03
1.691355389077387e-20 -6.219932338277780e-20 -2.576193860891762e-03
-2.038300084272749e-20 -2.749997495346546e-18 -2.576193860892419e-03
3.079134169858834e-20 -2.495020249432268e-20 -2.576193860891684e-03
-1.040834085586085e-20 6.671231492574871e-20 -2.576193860891646e-03
3.512815038853035e-20 2.867714746224160e-20 -2.576193860891824e-03
-6.938893903907230e-21 1.866860615748478e-20 -2.576193860891650e-03
-2.081668171172169e-20 -2.181279245769275e-20 -2.576193860891741e-03
3.252606517456514e-20 -4.540096597283051e-21 -2.576193860891761e-03
-1.561251128379127e-20 5.819455160815947e-20 -2.576193860891376e-03
2.818925648462312e-20 6.326319676452920e-20 -2.576193860891619e-03
3.079134169858834e-20 3.103528718739757e-20 -2.576193860891761e-03
-2.558717127065791e-20 -6.436095146417078e-20 -2.576193860891612e-03
-1.734723475976808e-21 2.869069998939767e-20 -2.576193860891752e-03
-0.000000000000000e+00 -0.000000000000000e+00 -0.000000000000000e+00
-6.615666131234989e-20 3.034930929266385e-65 -1.844154937446727e-04
-0.000000000000000e+00 -0.000000000000000e+00 -0.000000000000000e+00
8.673617379884038e-22 1.802486111757152e-21 -1.844154937446400e-04
-0.000000000000000e+00 -0.000000000000000e+00 -0.000000000000000e+00
4.336808689942019e-22 -1.341700188450812e-21 -1.844154937446628e-04
-0.000000000000000e+00 -0.000000000000000e+00 -0.000000000000000e+00
-3.034930929266262e-65 1.429791614965259e-21 -1.844154937446652e-04
-0.000000000000000e+00 -0.000000000000000e+00 -0.000000000000000e+00
1.691355389077387e-20 1.045577470090709e-20 -2.576193860891774e-03
1.821459649775648e-20 -1.090978436063539e-20 -2.576193860891793e-03
-3.034930929265775e-65 6.669198613501461e-20 -1.844154937446356e-04
-0.000000000000000e+00 -0.000000000000000e+00 -0.000000000000000e+00
1.214306433183765e-20 4.237875241702716e-20 -2.576193860891643e-03
3.035766082959413e-20 5.462346070253533e-20 -2.576193860891697e-03
4.336808689942019e-22 -1.422337725029422e-19 -1.844154937446632e-04
-0.000000000000000e+00 -0.000000000000000e+00 -0.000000000000000e+00
-1.257674520083186e-20 8.080016690448224e-20 -2.576193860891506e-03
3.079134169858834e-20 3.103528718739757e-20 -2.576193860891761e-03
-3.034930929266380e-65 -1.158741071843883e-21 -1.844154937446724e-04
-0.000000000000000e+00 -0.000000000000000e+00 -0.000000000000000e+00
4.336808689942019e-22 3.862470239479611e-22 -1.844154937446412e-04
-0.000000000000000e+00 -0.000000000000000e+00 -0.000000000000000e+00
-4.336808689942019e-22 1.179069862577986e-21 -1.844154937446496e-04
-0.000000000000000e+00 -0.000000000000000e+00 -0.000000000000000e+00
-3.034930929266379e-65 -3.117081245895826e-22 -1.844154937446723e-04
-0.000000000000000e+00 -0.000000000000000e+00 -0.000000000000000e+00
4.336808689942019e-22 -1.463672932855431e-21 -1.844154937446408e-04
-0.000000000000000e+00 -0.000000000000000e+00 -0.000000000000000e+00
-8.673617379884038e-22 -2.358139725155973e-21 -1.844154937446746e-04
-0.000000000000000e+00 -0.000000000000000e+00 -0.000000000000000e+00
-3.034930929266374e-65 4.878909776184771e-22 -1.844154937446720e-04
-0.000000000000000e+00 -0.000000000000000e+00 -0.000000000000000e+00
4.336808689942019e-22 -1.023215800283195e-21 -1.844154937446480e-04
-0.000000000000000e+00 -0.000000000000000e+00 -0.000000000000000e+00
-2.775557561562892e-20 -2.776580777363175e-18 -2.576193860891543e-03
-5.786703366122762e-18 -5.817706884812814e-18 -2.576193860892508e-03
-6.505213034913028e-21 1.966471690345584e-20 -2.576193860892529e-03
-2.602085213965211e-21 -2.317482143687766e-21 -2.576193860892187e-03
-4.336808689942019e-22 1.660184576618429e-21 -1.844154937446661e-04
-0.000000000000000e+00 -0.000000000000000e+00 -0.000000000000000e+00
-4.336808689942019e-22 6.911788849595092e-22 -1.844154937446300e-04
-0.000000000000000e+00 -0.000000000000000e+00 -0.000000000000000e+00
-6.563488901684124e-20 -4.336808689942019e-22 -1.844154937446267e-04
-0.000000000000000e+00 -0.000000000000000e+00 -0.000000000000000e+00
-3.034930929265785e-65 -3.997995511040298e-22 -1.844154937446363e-04
-0.000000000000000e+00 -0.000000000000000e+00 -0.000000000000000e+00
-4.336808689942019e-22 -8.990746515336047e-20 -1.844154937446406e-04
-0.000000000000000e+00 -3.948574448223210e-79 -1.778279841366269e-63
-4.336808689942019e-22 -1.314595134138674e-21 -1.844154937446307e-04
-0.000000000000000e+00 -0.000000000000000e+00 -0.000000000000000e+00
4.336808689942019e-22 6.437450399132685e-22 -1.844154937446352e-04
-0.000000000000000e+00 -0.000000000000000e+00 -0.000000000000000e+00
4.336808689942019e-22 -1.456896669277397e-21 -1.844154937446408e-04
-0.000000000000000e+00 -0.000000000000000e+00 -0.000000000000000e+00
-3.034930929265773e-65 2.846030702774450e-22 -1.844154937446355e-04
-0.000000000000000e+00 -0.000000000000000e+00 -0.000000000000000e+00
4.336808689942019e-22 5.895349312889932e-22 -1.844154937446421e-04
-0.000000000000000e+00 -0.000000000000000e+00 -0.000000000000000e+00
-3.034930929265784e-65 1.748276003132876e-21 -1.844154937446362e-04
-0.000000000000000e+00 -0.000000000000000e+00 -0.000000000000000e+00
-8.673617379884038e-22 -2.310705880109732e-21 -1.844154937446155e-04
-0.000000000000000e+00 -0.000000000000000e+00 -0.000000000000000e+00
4.336808689942019e-22 -6.369687763352340e-22 -1.844154937446335e-04
-0.000000000000000e+00 -0.000000000000000e+00 -0.000000000000000e+00
-3.034930929265785e-65 -8.402566836762661e-22 -1.844154937446362e-04
-0.000000000000000e+00 -0.000000000000000e+00 -0.000000000000000e+00
8.673617379884038e-22 1.084202172485505e-22 -1.844154937446330e-04
-0.000000000000000e+00 -0.000000000000000e+00 -0.000000000000000e+00
-3.034930929265894e-65 1.192622389734055e-21 -1.844154937446428e-04
-0.000000000000000e+00 -0.000000000000000e+00 -0.000000000000000e+00
-3.034930929266370e-65 8.605854744103693e-22 -1.844154937446718e-04
-0.000000000000000e+00 -0.000000000000000e+00 -0.000000000000000e+00
2.081668171172169e-20 5.380353280959317e-20 -2.576193860892645e-03
-3.903127820947817e-21 2.249041881549619e-20 -2.576193860892567e-03
-3.035766082959413e-21 2.914701357874251e-18 -2.576193860892213e-03
-1.821459649775648e-20 1.355930341964684e-20 -2.576193860892202e-03
-3.034930929266247e-65 -1.016439536705161e-22 -1.844154937446643e-04
-0.000000000000000e+00 -0.000000000000000e+00 -0.000000000000000e+00
4.336808689942019e-22 -4.472333961502707e-22 -1.844154937446700e-04
-0.000000000000000e+00 -0.000000000000000e+00 -0.000000000000000e+00
2.762127007151228e-18 -4.336808689942019e-22 -2.576193860892219e-03
-3.469446951953615e-21 2.598697082176194e-20 -2.576193860891746e-03
-0.000000000000000e+00 -0.000000000000000e+00 -0.000000000000000e+00
4.336808689942019e-22 -6.669198613501461e-20 -1.844154937446205e-04
-8.673617379884038e-22 2.154851817814940e-21 -1.844154937446232e-04
-4.336808689942019e-22 -1.456896669277397e-21 -1.844154937446373e-04
-0.000000000000000e+00 -0.000000000000000e+00 -0.000000000000000e+00
-4.336808689942019e-22 6.369687763352340e-22 -1.844154937446459e-04
-0.000000000000000e+00 -0.000000000000000e+00 -0.000000000000000e+00
-9.107298248878239e-21 2.731511848305668e-20 -2.576193860891572e-03
1.908195823574488e-20 -1.160096324559490e-20 -2.576193860891455e-03
-1.127570259384925e-20 -7.034439220357515e-20 -2.576193860891593e-03
3.339342691255354e-20 3.143474792532270e-18 -2.576193860891353e-03
4.336808689942019e-22 5.895349312889932e-22 -1.844154937446350e-04
-0.000000000000000e+00 -0.000000000000000e+00 -0.000000000000000e+00
-8.673617379884038e-22 -2.771491803416071e-21 -1.844154937446390e-04
-0.000000000000000e+00 -0.000000000000000e+00 -0.000000000000000e+00
-0.000000000000000e+00 8.408665473982892e-20 -2.576193860891346e-03
2.168404344971009e-20 2.474013832340361e-20 -2.576193860891499e-03
3.035766082959413e-20 5.527398200602664e-20 -2.576193860892109e-03
3.035766082959413e-21 -5.206880933361636e-20 -2.576193860891970e-03
4.336808689942019e-22 -1.490777987167569e-22 -1.844154937446172e-04
-0.000000000000000e+00 -0.000000000000000e+00 -0.000000000000000e+00
-3.034930929265906e-65 1.809262375335186e-21 -1.844154937446436e-04
-0.000000000000000e+00 -0.000000000000000e+00 -0.000000000000000e+00
-5.862077858721783e-18 -8.673617379884038e-22 -2.576193860892002e-03
1.561251128379127e-20 -2.716177163828577e-18 -2.576193860892147e-03
-2.905661822261153e-20 3.289875967135703e-20 -2.576193860892018e-03
-3.469446951953615e-21 4.286664339464564e-20 -2.576193860892143e-03
9.974659986866644e-21 -4.151139067903876e-20 -2.576193860891680e-03
2.892739487617841e-18 5.637851296924624e-21 -2.576193860891675e-03
-2.038300084272749e-20 7.182839392716469e-21 -2.576193860891811e-03
-0.000000000000000e+00 -0.000000000000000e+00 -0.000000000000000e+00
-8.673617379884038e-22 4.269046054161675e-22 -1.844154937446468e-04
-0.000000000000000e+00 -0.000000000000000e+00 -0.000000000000000e+00
4.336808689942019e-22 -1.910906329005702e-21 -1.844154937446479e-04
-0.000000000000000e+00 -0.000000000000000e+00 -0.000000000000000e+00
-3.034930929265910e-65 -2.913793338554794e-22 -1.844154937446439e-04
-0.000000000000000e+00 -0.000000000000000e+00 -0.000000000000000e+00
-0.000000000000000e+00 -0.000000000000000e+00 -0.000000000000000e+00
-1.353416081705665e-19 -1.395707009167746e-19 -1.844154937447045e-04
-0.000000000000000e+00 -0.000000000000000e+00 -0.000000000000000e+00
4.336808689942019e-22 -2.066760391300493e-21 -1.844154937447133e-04
4.336808689942019e-22 2.392021043046145e-21 -1.844154937446263e-04
-0.000000000000000e+00 -0.000000000000000e+00 -0.000000000000000e+00
-6.475397475169677e-20 3.034930929265540e-65 -1.844154937446213e-04
-0.000000000000000e+00 -0.000000000000000e+00 -0.000000000000000e+00
-0.000000000000000e+00 -0.000000000000000e+00 -0.000000000000000e+00
1.691355389077387e-20 -9.137113808621591e-20 -2.576193860892177e-03
-5.204170427930423e-21 -3.545341104027600e-20 -2.576193860892053e-03
-4.336808689942019e-22 5.488773498207867e-22 -1.844154937446741e-04
-0.000000000000000e+00 -0.000000000000000e+00 -0.000000000000000e+00
3.295974604355934e-20 1.787578331885476e-20 -2.576193860892153e-03
1.257674520083186e-20 -3.049318610115482e-22 -2.576193860892129e-03
-3.034930929266949e-65 -1.856696220381427e-21 -1.844154937447070e-04
-0.000000000000000e+00 -0.000000000000000e+00 -0.000000000000000e+00
8.239936510889835e-21 9.371572528421581e-21 -2.576193860891589e-03
1.994931997373329e-20 3.095397202446116e-20 -2.576193860891805e-03
-3.034930929266855e-65 1.951563910473909e-21 -1.844154937447013e-04
-0.000000000000000e+00 -0.000000000000000e+00 -0.000000000000000e+00
8.673617379884038e-22 6.646836943693948e-20 -1.844154937446686e-04
-0.000000000000000e+00 -0.000000000000000e+00 -0.000000000000000e+00
-8.673617379884038e-22 3.794707603699267e-22 -1.844154937446752e-04
-0.000000000000000e+00 -0.000000000000000e+00 -0.000000000000000e+00
6.657001339060998e-20 -8.673617379884038e-22 -1.844154937446690e-04
-0.000000000000000e+00 -0.000000000000000e+00 -0.000000000000000e+00
3.122502256758254e-20 -6.444226662710718e-21 -2.576193860891653e-03
2.848930943585849e-18 -2.125036258071589e-20 -2.576193860891523e-03
4.336808689942019e-22 -1.565316886525947e-21 -1.844154937446351e-04
1.040834085586085e-20 -2.175180608549044e-21 -2.576193860892243e-03
-0.000000000000000e+00 -2.968003447179069e-20 -2.576193860891438e-03
2.081668171172169e-20 -3.053384368262303e-20 -2.576193860891539e-03
-1.170938346284345e-20 -2.377113263174469e-20 -2.576193860891527e-03
-0.000000000000000e+00 -0.000000000000000e+00 -0.000000000000000e+00
4.336808689942019e-22 -4.743384504624083e-23 -1.844154937446555e-04
-0.000000000000000e+00 -0.000000000000000e+00 -0.000000000000000e+00
-4.336808689942019e-22 -2.195509399283147e-21 -1.844154937446592e-04
2.081668171172169e-20 1.860084352170444e-20 -2.576193860891844e-03
-3.469446951953615e-21 -5.383063786390531e-20 -2.576193860891768e-03
-3.034930929265563e-65 -6.572975670693372e-22 -1.844154937446228e-04
-0.000000000000000e+00 -0.000000000000000e+00 -0.000000000000000e+00
-3.034930929265545e-65 -1.348476452028846e-21 -1.844154937446217e-04