<?xml version="1.0" ?> 
<!-- 
# vtk DataFile Version 3.0
-->
<VTKFile type="UnstructuredGrid" version="0.1" compressor="vtkZLibDataCompressor" byte_order="LittleEndian">
  <UnstructuredGrid>
    <FieldData>
      <DataArray type="Float64" Name="TIME" NumberOfTuples="1" format="ascii">
6.250000000000001e-02 
      </DataArray>
    </FieldData>

    <Piece NumberOfPoints="80" NumberOfCells="0" >
      <Points>
        <DataArray type="Float64" NumberOfComponents="3" format="ascii">
-1.500000000000000e-01 -1.500000000000000e-01 1.048429512380344e+00
-1.500000000000000e-01 -5.000000000000005e-02 1.048429512380344e+00
-1.500000000000000e-01 4.999999999999993e-02 1.048429512380344e+00
-1.500000000000000e-01 1.500000000000000e-01 1.048429512380344e+00
-5.000000000000004e-02 -1.500000000000000e-01 1.048429512380344e+00
-5.000000000000004e-02 -5.000000000000005e-02 1.048429512380344e+00
-5.000000000000004e-02 4.999999999999993e-02 1.048429512380344e+00
-5.000000000000004e-02 1.500000000000000e-01 1.048429512380344e+00
4.999999999999994e-02 -1.500000000000000e-01 1.048429512380344e+00
4.999999999999994e-02 -5.000000000000005e-02 1.048429512380344e+00
4.999999999999994e-02 4.999999999999993e-02 1.048429512380344e+00
4.999999999999994e-02 1.500000000000000e-01 1.048429512380344e+00
1.500000000000001e-01 -1.500000000000000e-01 1.048429512380344e+00
1.500000000000001e-01 -5.000000000000005e-02 1.048429512380344e+00
1.500000000000001e-01 4.999999999999993e-02 1.048429512380344e+00
1.500000000000001e-01 1.500000000000000e-01 1.048429512380344e+00
-1.500000000000000e-01 -1.500000000000000e-01 1.148429512380344e+00
-1.500000000000000e-01 -1.500000000000000e-01 1.248429512380344e+00
-1.500000000000000e-01 -1.500000000000000e-01 1.348429512380344e+00
-1.500000000000000e-01 -1.500000000000000e-01 1.448429512380344e+00
-1.500000000000000e-01 -5.000000000000005e-02 1.148429512380344e+00
-1.500000000000000e-01 -5.000000000000005e-02 1.248429512380344e+00
-1.500000000000000e-01 -5.000000000000005e-02 1.348429512380344e+00
-1.500000000000000e-01 -5.000000000000005e-02 1.448429512380344e+00
-1.500000000000000e-01 4.999999999999993e-02 1.148429512380344e+00
-1.500000000000000e-01 4.999999999999993e-02 1.248429512380344e+00
-1.500000000000000e-01 4.999999999999993e-02 1.348429512380344e+00
-1.500000000000000e-01 4.999999999999993e-02 1.448429512380344e+00
-1.500000000000000e-01 1.500000000000000e-01 1.148429512380344e+00
-1.500000000000000e-01 1.500000000000000e-01 1.248429512380344e+00
-1.500000000000000e-01 1.500000000000000e-01 1.348429512380344e+00
-1.500000000000000e-01 1.500000000000000e-01 1.448429512380344e+00
-5.000000000000004e-02 -1.500000000000000e-01 1.148429512380344e+00
-5.000000000000004e-02 -1.500000000000000e-01 1.248429512380344e+00
-5.000000000000004e-02 -1.500000000000000e-01 1.348429512380344e+00
-5.000000000000004e-02 -1.500000000000000e-01 1.448429512380344e+00
-5.000000000000004e-02 -5.000000000000005e-02 1.148429512380344e+00
-5.000000000000004e-02 -5.000000000000005e-02 1.248429512380344e+00
-5.000000000000004e-02 -5.000000000000005e-02 1.348429512380344e+00
-5.000000000000004e-02 -5.000000000000005e-02 1.448429512380344e+00
-5.000000000000004e-02 4.999999999999993e-02 1.148429512380344e+00
-5.000000000000004e-02 4.999999999999993e-02 1.248429512380344e+00
-5.000000000000004e-02 4.999999999999993e-02 1.348429512380344e+00
-5.000000000000004e-02 4.999999999999993e-02 1.448429512380344e+00
-5.000000000000004e-02 1.500000000000000e-01 1.148429512380344e+00
-5.000000000000004e-02 1.500000000000000e-01 1.248429512380344e+00
-5.000000000000004e-02 1.500000000000000e-01 1.348429512380344e+00
-5.000000000000004e-02 1.500000000000000e-01 1.448429512380344e+00
4.999999999999994e-02 -1.500000000000000e-01 1.148429512380344e+00
4.999999999999994e-02 -1.500000000000000e-01 1.248429512380344e+00
4.999999999999994e-02 -1.500000000000000e-01 1.348429512380344e+00
4.999999999999994e-02 -1.500000000000000e-01 1.448429512380344e+00
4.999999999999994e-02 -5.000000000000005e-02 1.148429512380344e+00
4.999999999999994e-02 -5.000000000000005e-02 1.248429512380344e+00
4.999999999999994e-02 -5.000000000000005e-02 1.348429512380344e+00
4.999999999999994e-02 -5.000000000000005e-02 1.448429512380344e+00
4.999999999999994e-02 4.999999999999993e-02 1.148429512380344e+00
4.999999999999994e-02 4.999999999999993e-02 1.248429512380344e+00
4.999999999999994e-02 4.999999999999993e-02 1.348429512380344e+00
4.999999999999994e-02 4.999999999999993e-02 1.448429512380344e+00
4.999999999999994e-02 1.500000000000000e-01 1.148429512380344e+00
4.999999999999994e-02 1.500000000000000e-01 1.248429512380344e+00
4.999999999999994e-02 1.500000000000000e-01 1.348429512380344e+00
4.999999999999994e-02 1.500000000000000e-01 1.448429512380344e+00
1.500000000000001e-01 -1.500000000000000e-01 1.148429512380344e+00
1.500000000000001e-01 -1.500000000000000e-01 1.248429512380344e+00
1.500000000000001e-01 -1.500000000000000e-01 1.348429512380344e+00
1.500000000000001e-01 -1.500000000000000e-01 1.448429512380344e+00
1.500000000000001e-01 -5.000000000000005e-02 1.148429512380344e+00
1.500000000000001e-01 -5.000000000000005e-02 1.248429512380344e+00
1.500000000000001e-01 -5.000000000000005e-02 1.348429512380344e+00
1.500000000000001e-01 -5.000000000000005e-02 1.448429512380344e+00
1.500000000000001e-01 4.999999999999993e-02 1.148429512380344e+00
1.500000000000001e-01 4.999999999999993e-02 1.248429512380344e+00
1.500000000000001e-01 4.999999999999993e-02 1.348429512380344e+00
1.500000000000001e-01 4.999999999999993e-02 1.448429512380344e+00
1.500000000000001e-01 1.500000000000000e-01 1.148429512380344e+00
1.500000000000001e-01 1.500000000000000e-01 1.248429512380344e+00
1.500000000000001e-01 1.500000000000000e-01 1.348429512380344e+00
1.500000000000001e-01 1.500000000000000e-01 1.448429512380344e+00
        </DataArray>
      </Points>

      <Cells>
        <DataArray type="Int32" Name="connectivity" format="ascii">

        </DataArray>
        <DataArray type="Int32" Name="offsets" format="ascii">

        </DataArray>
        <DataArray type="UInt8" Name="types" format="ascii">

        </DataArray>
      </Cells>

  <PointData>
        <DataArray type="Float64" Name="acceleration" NumberOfComponents="3" format="ascii">
-5.931452380523190e-14 3.267773120254671e-14 -5.640939318273654e-01
-5.906493968160551e-14 3.267773120254671e-14 -5.640939318273543e-01
-5.881535555797912e-14 3.267773120254671e-14 -5.640939318273434e-01
-5.856577143435273e-14 3.267773120254671e-14 -5.640939318273323e-01
-5.931452380523190e-14 3.242814707892031e-14 -5.640939318273795e-01
-5.906493968160551e-14 3.242814707892031e-14 -5.640939318273684e-01
-5.881535555797912e-14 3.242814707892031e-14 -5.640939318273575e-01
-5.856577143435273e-14 3.242814707892031e-14 -5.640939318273464e-01
-5.931452380523190e-14 3.217856295529392e-14 -5.640939318273936e-01
-5.906493968160551e-14 3.217856295529392e-14 -5.640939318273825e-01
-5.881535555797912e-14 3.217856295529392e-14 -5.640939318273716e-01
-5.856577143435273e-14 3.217856295529392e-14 -5.640939318273605e-01
-5.931452380523190e-14 3.192897883166752e-14 -5.640939318274077e-01
-5.906493968160551e-14 3.192897883166752e-14 -5.640939318273966e-01
-5.881535555797912e-14 3.192897883166752e-14 -5.640939318273857e-01
-5.856577143435273e-14 3.192897883166752e-14 -5.640939318273746e-01
-4.521030528488657e-14 2.159740935579411e-14 -5.640939318273654e-01
-3.110608676454120e-14 1.051708750904148e-14 -5.640939318273654e-01
-1.700186824419583e-14 -5.632343377111464e-16 -5.640939318273654e-01
-2.897649723850486e-15 -1.164355618446375e-14 -5.640939318273654e-01
-4.496072116126018e-14 2.159740935579411e-14 -5.640939318273543e-01
-3.085650264091480e-14 1.051708750904148e-14 -5.640939318273543e-01
-1.675228412056943e-14 -5.632343377111464e-16 -5.640939318273543e-01
-2.648065600224091e-15 -1.164355618446375e-14 -5.640939318273543e-01
-4.471113703763378e-14 2.159740935579411e-14 -5.640939318273434e-01
-3.060691851728841e-14 1.051708750904148e-14 -5.640939318273434e-01
-1.650269999694303e-14 -5.632343377111465e-16 -5.640939318273434e-01
-2.398481476597693e-15 -1.164355618446375e-14 -5.640939318273434e-01
-4.446155291400738e-14 2.159740935579411e-14 -5.640939318273323e-01
-3.035733439366201e-14 1.051708750904148e-14 -5.640939318273323e-01
-1.625311587331664e-14 -5.632343377111465e-16 -5.640939318273323e-01
-2.148897352971299e-15 -1.164355618446375e-14 -5.640939318273323e-01
-4.521030528488657e-14 2.134782523216771e-14 -5.640939318273795e-01
-3.110608676454120e-14 1.026750338541508e-14 -5.640939318273795e-01
-1.700186824419583e-14 -8.128184613375428e-16 -5.640939318273795e-01
-2.897649723850486e-15 -1.189314030809014e-14 -5.640939318273795e-01
-4.496072116126018e-14 2.134782523216771e-14 -5.640939318273684e-01
-3.085650264091480e-14 1.026750338541508e-14 -5.640939318273684e-01
-1.675228412056943e-14 -8.128184613375428e-16 -5.640939318273684e-01
-2.648065600224091e-15 -1.189314030809014e-14 -5.640939318273684e-01
-4.471113703763378e-14 2.134782523216771e-14 -5.640939318273575e-01
-3.060691851728841e-14 1.026750338541508e-14 -5.640939318273575e-01
-1.650269999694303e-14 -8.128184613375428e-16 -5.640939318273575e-01
-2.398481476597693e-15 -1.189314030809014e-14 -5.640939318273575e-01
-4.446155291400738e-14 2.134782523216771e-14 -5.640939318273464e-01
-3.035733439366201e-14 1.026750338541508e-14 -5.640939318273464e-01
-1.625311587331664e-14 -8.128184613375429e-16 -5.640939318273464e-01
-2.148897352971299e-15 -1.189314030809014e-14 -5.640939318273464e-01
-4.521030528488657e-14 2.109824110854132e-14 -5.640939318273936e-01
-3.110608676454120e-14 1.001791926178869e-14 -5.640939318273936e-01
-1.700186824419583e-14 -1.062402584963938e-15 -5.640939318273936e-01
-2.897649723850486e-15 -1.214272443171654e-14 -5.640939318273936e-01
-4.496072116126018e-14 2.109824110854132e-14 -5.640939318273825e-01
-3.085650264091480e-14 1.001791926178869e-14 -5.640939318273825e-01
-1.675228412056943e-14 -1.062402584963938e-15 -5.640939318273825e-01
-2.648065600224091e-15 -1.214272443171654e-14 -5.640939318273825e-01
-4.471113703763378e-14 2.109824110854132e-14 -5.640939318273716e-01
-3.060691851728841e-14 1.001791926178869e-14 -5.640939318273716e-01
-1.650269999694303e-14 -1.062402584963938e-15 -5.640939318273716e-01
-2.398481476597693e-15 -1.214272443171654e-14 -5.640939318273716e-01
-4.446155291400738e-14 2.109824110854132e-14 -5.640939318273605e-01
-3.035733439366201e-14 1.001791926178869e-14 -5.640939318273605e-01
-1.625311587331664e-14 -1.062402584963938e-15 -5.640939318273605e-01
-2.148897352971299e-15 -1.214272443171654e-14 -5.640939318273605e-01
-4.521030528488657e-14 2.084865698491492e-14 -5.640939318274077e-01
-3.110608676454120e-14 9.768335138162292e-15 -5.640939318274077e-01
-1.700186824419583e-14 -1.311986708590334e-15 -5.640939318274077e-01
-2.897649723850486e-15 -1.239230855534294e-14 -5.640939318274077e-01
-4.496072116126018e-14 2.084865698491492e-14 -5.640939318273966e-01
-3.085650264091480e-14 9.768335138162292e-15 -5.640939318273966e-01
-1.675228412056943e-14 -1.311986708590334e-15 -5.640939318273966e-01
-2.648065600224091e-15 -1.239230855534294e-14 -5.640939318273966e-01
-4.471113703763378e-14 2.084865698491492e-14 -5.640939318273857e-01
-3.060691851728841e-14 9.768335138162292e-15 -5.640939318273857e-01
-1.650269999694303e-14 -1.311986708590334e-15 -5.640939318273857e-01
-2.398481476597693e-15 -1.239230855534294e-14 -5.640939318273857e-01
-4.446155291400738e-14 2.084865698491492e-14 -5.640939318273746e-01
-3.035733439366201e-14 9.768335138162292e-15 -5.640939318273746e-01
-1.625311587331664e-14 -1.311986708590334e-15 -5.640939318273746e-01
-2.148897352971299e-15 -1.239230855534294e-14 -5.640939318273746e-01
        </DataArray>
        <DataArray type="Float64" Name="body frame relative position" NumberOfComponents="3" format="ascii">
-1.500000000000000e-01 -1.500000000000000e-01 -2.000000000000000e-01
-1.500000000000000e-01 -5.000000000000002e-02 -2.000000000000000e-01
-1.500000000000000e-01 4.999999999999996e-02 -2.000000000000000e-01
-1.500000000000000e-01 1.500000000000001e-01 -2.000000000000000e-01
-5.000000000000002e-02 -1.500000000000000e-01 -2.000000000000000e-01
-5.000000000000002e-02 -5.000000000000002e-02 -2.000000000000000e-01
-5.000000000000002e-02 4.999999999999996e-02 -2.000000000000000e-01
-5.000000000000002e-02 1.500000000000001e-01 -2.000000000000000e-01
4.999999999999995e-02 -1.500000000000000e-01 -2.000000000000000e-01
4.999999999999995e-02 -5.000000000000002e-02 -2.000000000000000e-01
4.999999999999995e-02 4.999999999999996e-02 -2.000000000000000e-01
4.999999999999995e-02 1.500000000000001e-01 -2.000000000000000e-01
1.500000000000001e-01 -1.500000000000000e-01 -2.000000000000000e-01
1.500000000000001e-01 -5.000000000000002e-02 -2.000000000000000e-01
1.500000000000001e-01 4.999999999999996e-02 -2.000000000000000e-01
1.500000000000001e-01 1.500000000000001e-01 -2.000000000000000e-01
-1.500000000000000e-01 -1.500000000000000e-01 -1.000000000000001e-01
-1.500000000000000e-01 -1.500000000000000e-01 0.000000000000000e+00
-1.500000000000000e-01 -1.500000000000000e-01 1.000000000000001e-01
-1.500000000000000e-01 -1.500000000000000e-01 2.000000000000000e-01
-1.500000000000000e-01 -5.000000000000002e-02 -1.000000000000001e-01
-1.500000000000000e-01 -5.000000000000002e-02 0.000000000000000e+00
-1.500000000000000e-01 -5.000000000000002e-02 1.000000000000001e-01
-1.500000000000000e-01 -5.000000000000002e-02 2.000000000000000e-01
-1.500000000000000e-01 4.999999999999996e-02 -1.000000000000001e-01
-1.500000000000000e-01 4.999999999999996e-02 0.000000000000000e+00
-1.500000000000000e-01 4.999999999999996e-02 1.000000000000001e-01
-1.500000000000000e-01 4.999999999999996e-02 2.000000000000000e-01
-1.500000000000000e-01 1.500000000000001e-01 -1.000000000000001e-01
-1.500000000000000e-01 1.500000000000001e-01 0.000000000000000e+00
-1.500000000000000e-01 1.500000000000001e-01 1.000000000000001e-01
-1.500000000000000e-01 1.500000000000001e-01 2.000000000000000e-01
-5.000000000000002e-02 -1.500000000000000e-01 -1.000000000000001e-01
-5.000000000000002e-02 -1.500000000000000e-01 0.000000000000000e+00
-5.000000000000002e-02 -1.500000000000000e-01 1.000000000000001e-01
-5.000000000000002e-02 -1.500000000000000e-01 2.000000000000000e-01
-5.000000000000002e-02 -5.000000000000002e-02 -1.000000000000001e-01
-5.000000000000002e-02 -5.000000000000002e-02 0.000000000000000e+00
-5.000000000000002e-02 -5.000000000000002e-02 1.000000000000001e-01
-5.000000000000002e-02 -5.000000000000002e-02 2.000000000000000e-01
-5.000000000000002e-02 4.999999999999996e-02 -1.000000000000001e-01
-5.000000000000002e-02 4.999999999999996e-02 0.000000000000000e+00
-5.000000000000002e-02 4.999999999999996e-02 1.000000000000001e-01
-5.000000000000002e-02 4.999999999999996e-02 2.000000000000000e-01
-5.000000000000002e-02 1.500000000000001e-01 -1.000000000000001e-01
-5.000000000000002e-02 1.500000000000001e-01 0.000000000000000e+00
-5.000000000000002e-02 1.500000000000001e-01 1.000000000000001e-01
-5.000000000000002e-02 1.500000000000001e-01 2.000000000000000e-01
4.999999999999995e-02 -1.500000000000000e-01 -1.000000000000001e-01
4.999999999999995e-02 -1.500000000000000e-01 0.000000000000000e+00
4.999999999999995e-02 -1.500000000000000e-01 1.000000000000001e-01
4.999999999999995e-02 -1.500000000000000e-01 2.000000000000000e-01
4.999999999999995e-02 -5.000000000000002e-02 -1.000000000000001e-01
4.999999999999995e-02 -5.000000000000002e-02 0.000000000000000e+00
4.999999999999995e-02 -5.000000000000002e-02 1.000000000000001e-01
4.999999999999995e-02 -5.000000000000002e-02 2.000000000000000e-01
4.999999999999995e-02 4.999999999999996e-02 -1.000000000000001e-01
4.999999999999995e-02 4.999999999999996e-02 0.000000000000000e+00
4.999999999999995e-02 4.999999999999996e-02 1.000000000000001e-01
4.999999999999995e-02 4.999999999999996e-02 2.000000000000000e-01
4.999999999999995e-02 1.500000000000001e-01 -1.000000000000001e-01
4.999999999999995e-02 1.500000000000001e-01 0.000000000000000e+00
4.999999999999995e-02 1.500000000000001e-01 1.000000000000001e-01
4.999999999999995e-02 1.500000000000001e-01 2.000000000000000e-01
1.500000000000001e-01 -1.500000000000000e-01 -1.000000000000001e-01
1.500000000000001e-01 -1.500000000000000e-01 0.000000000000000e+00
1.500000000000001e-01 -1.500000000000000e-01 1.000000000000001e-01
1.500000000000001e-01 -1.500000000000000e-01 2.000000000000000e-01
1.500000000000001e-01 -5.000000000000002e-02 -1.000000000000001e-01
1.500000000000001e-01 -5.000000000000002e-02 0.000000000000000e+00
1.500000000000001e-01 -5.000000000000002e-02 1.000000000000001e-01
1.500000000000001e-01 -5.000000000000002e-02 2.000000000000000e-01
1.500000000000001e-01 4.999999999999996e-02 -1.000000000000001e-01
1.500000000000001e-01 4.999999999999996e-02 0.000000000000000e+00
1.500000000000001e-01 4.999999999999996e-02 1.000000000000001e-01
1.500000000000001e-01 4.999999999999996e-02 2.000000000000000e-01
1.500000000000001e-01 1.500000000000001e-01 -1.000000000000001e-01
1.500000000000001e-01 1.500000000000001e-01 0.000000000000000e+00
1.500000000000001e-01 1.500000000000001e-01 1.000000000000001e-01
1.500000000000001e-01 1.500000000000001e-01 2.000000000000000e-01
        </DataArray>
        <DataArray type="Float64" Name="boundary pressure" format="ascii">
0.000000000000000e+00
0.000000000000000e+00
0.000000000000000e+00
0.000000000000000e+00
0.000000000000000e+00
0.000000000000000e+00
0.000000000000000e+00
0.000000000000000e+00
0.000000000000000e+00
0.000000000000000e+00
0.000000000000000e+00
0.000000000000000e+00
0.000000000000000e+00
0.000000000000000e+00
0.000000000000000e+00
0.000000000000000e+00
0.000000000000000e+00
0.000000000000000e+00
0.000000000000000e+00
0.000000000000000e+00
0.000000000000000e+00
0.000000000000000e+00
0.000000000000000e+00
0.000000000000000e+00
0.000000000000000e+00
0.000000000000000e+00
0.000000000000000e+00
0.000000000000000e+00
0.000000000000000e+00
0.000000000000000e+00
0.000000000000000e+00
0.000000000000000e+00
0.000000000000000e+00
0.000000000000000e+00
0.000000000000000e+00
0.000000000000000e+00
0.000000000000000e+00
0.000000000000000e+00
0.000000000000000e+00
0.000000000000000e+00
0.000000000000000e+00
0.000000000000000e+00
0.000000000000000e+00
0.000000000000000e+00
0.000000000000000e+00
0.000000000000000e+00
0.000000000000000e+00
0.000000000000000e+00
0.000000000000000e+00
0.000000000000000e+00
0.000000000000000e+00
0.000000000000000e+00
0.000000000000000e+00
0.000000000000000e+00
0.000000000000000e+00
0.000000000000000e+00
0.000000000000000e+00
0.000000000000000e+00
0.000000000000000e+00
0.000000000000000e+00
0.000000000000000e+00
0.000000000000000e+00
0.000000000000000e+00
0.000000000000000e+00
0.000000000000000e+00
0.000000000000000e+00
0.000000000000000e+00
0.000000000000000e+00
0.000000000000000e+00
0.000000000000000e+00
0.000000000000000e+00
0.000000000000000e+00
0.000000000000000e+00
0.000000000000000e+00
0.000000000000000e+00
0.000000000000000e+00
0.000000000000000e+00
0.000000000000000e+00
0.000000000000000e+00
0.000000000000000e+00
        </DataArray>
        <DataArray type="Float64" Name="boundary velocity" NumberOfComponents="3" format="ascii">
0.000000000000000e+00 0.000000000000000e+00 0.000000000000000e+00
0.000000000000000e+00 0.000000000000000e+00 0.000000000000000e+00
0.000000000000000e+00 0.000000000000000e+00 0.000000000000000e+00
0.000000000000000e+00 0.000000000000000e+00 0.000000000000000e+00
0.000000000000000e+00 0.000000000000000e+00 0.000000000000000e+00
0.000000000000000e+00 0.000000000000000e+00 0.000000000000000e+00
0.000000000000000e+00 0.000000000000000e+00 0.000000000000000e+00
0.000000000000000e+00 0.000000000000000e+00 0.000000000000000e+00
0.000000000000000e+00 0.000000000000000e+00 0.000000000000000e+00
0.000000000000000e+00 0.000000000000000e+00 0.000000000000000e+00
0.000000000000000e+00 0.000000000000000e+00 0.000000000000000e+00
0.000000000000000e+00 0.000000000000000e+00 0.000000000000000e+00
0.000000000000000e+00 0.000000000000000e+00 0.000000000000000e+00
0.000000000000000e+00 0.000000000000000e+00 0.000000000000000e+00
0.000000000000000e+00 0.000000000000000e+00 0.000000000000000e+00
0.000000000000000e+00 0.000000000000000e+00 0.000000000000000e+00
0.000000000000000e+00 0.000000000000000e+00 0.000000000000000e+00
0.000000000000000e+00 0.000000000000000e+00 0.000000000000000e+00
0.000000000000000e+00 0.000000000000000e+00 0.000000000000000e+00
0.000000000000000e+00 0.000000000000000e+00 0.000000000000000e+00
0.000000000000000e+00 0.000000000000000e+00 0.000000000000000e+00
0.000000000000000e+00 0.000000000000000e+00 0.000000000000000e+00
0.000000000000000e+00 0.000000000000000e+00 0.000000000000000e+00
0.000000000000000e+00 0.000000000000000e+00 0.000000000000000e+00
0.000000000000000e+00 0.000000000000000e+00 0.000000000000000e+00
0.000000000000000e+00 0.000000000000000e+00 0.000000000000000e+00
0.000000000000000e+00 0.000000000000000e+00 0.000000000000000e+00
0.000000000000000e+00 0.000000000000000e+00 0.000000000000000e+00
0.000000000000000e+00 0.000000000000000e+00 0.000000000000000e+00
0.000000000000000e+00 0.000000000000000e+00 0.000000000000000e+00
0.000000000000000e+00 0.000000000000000e+00 0.000000000000000e+00
0.000000000000000e+00 0.000000000000000e+00 0.000000000000000e+00
0.000000000000000e+00 0.000000000000000e+00 0.000000000000000e+00
0.000000000000000e+00 0.000000000000000e+00 0.000000000000000e+00
0.000000000000000e+00 0.000000000000000e+00 0.000000000000000e+00
0.000000000000000e+00 0.000000000000000e+00 0.000000000000000e+00
0.000000000000000e+00 0.000000000000000e+00 0.000000000000000e+00
0.000000000000000e+00 0.000000000000000e+00 0.000000000000000e+00
0.000000000000000e+00 0.000000000000000e+00 0.000000000000000e+00
0.000000000000000e+00 0.000000000000000e+00 0.000000000000000e+00
0.000000000000000e+00 0.000000000000000e+00 0.000000000000000e+00
0.000000000000000e+00 0.000000000000000e+00 0.000000000000000e+00
0.000000000000000e+00 0.000000000000000e+00 0.000000000000000e+00
0.000000000000000e+00 0.000000000000000e+00 0.000000000000000e+00
0.000000000000000e+00 0.000000000000000e+00 0.000000000000000e+00
0.000000000000000e+00 0.000000000000000e+00 0.000000000000000e+00
0.000000000000000e+00 0.000000000000000e+00 0.000000000000000e+00
0.000000000000000e+00 0.000000000000000e+00 0.000000000000000e+00
0.000000000000000e+00 0.000000000000000e+00 0.000000000000000e+00
0.000000000000000e+00 0.000000000000000e+00 0.000000000000000e+00
0.000000000000000e+00 0.000000000000000e+00 0.000000000000000e+00
0.000000000000000e+00 0.000000000000000e+00 0.000000000000000e+00
0.000000000000000e+00 0.000000000000000e+00 0.000000000000000e+00
0.000000000000000e+00 0.000000000000000e+00 0.000000000000000e+00
0.000000000000000e+00 0.000000000000000e+00 0.000000000000000e+00
0.000000000000000e+00 0.000000000000000e+00 0.000000000000000e+00
0.000000000000000e+00 0.000000000000000e+00 0.000000000000000e+00
0.000000000000000e+00 0.000000000000000e+00 0.000000000000000e+00
0.000000000000000e+00 0.000000000000000e+00 0.000000000000000e+00
0.000000000000000e+00 0.000000000000000e+00 0.000000000000000e+00
0.000000000000000e+00 0.000000000000000e+00 0.000000000000000e+00
0.000000000000000e+00 0.000000000000000e+00 0.000000000000000e+00
0.000000000000000e+00 0.000000000000000e+00 0.000000000000000e+00
0.000000000000000e+00 0.000000000000000e+00 0.000000000000000e+00
0.000000000000000e+00 0.000000000000000e+00 0.000000000000000e+00
0.000000000000000e+00 0.000000000000000e+00 0.000000000000000e+00
0.000000000000000e+00 0.000000000000000e+00 0.000000000000000e+00
0.000000000000000e+00 0.000000000000000e+00 0.000000000000000e+00
0.000000000000000e+00 0.000000000000000e+00 0.000000000000000e+00
0.000000000000000e+00 0.000000000000000e+00 0.000000000000000e+00
0.000000000000000e+00 0.000000000000000e+00 0.000000000000000e+00
0.000000000000000e+00 0.000000000000000e+00 0.000000000000000e+00
0.000000000000000e+00 0.000000000000000e+00 0.000000000000000e+00
0.000000000000000e+00 0.000000000000000e+00 0.000000000000000e+00
0.000000000000000e+00 0.000000000000000e+00 0.000000000000000e+00
0.000000000000000e+00 0.000000000000000e+00 0.000000000000000e+00
0.000000000000000e+00 0.000000000000000e+00 0.000000000000000e+00
0.000000000000000e+00 0.000000000000000e+00 0.000000000000000e+00
0.000000000000000e+00 0.000000000000000e+00 0.000000000000000e+00
0.000000000000000e+00 0.000000000000000e+00 0.000000000000000e+00
        </DataArray>
        <DataArray type="Float64" Name="force" NumberOfComponents="3" format="ascii">
3.466414920605485e-04 3.466414920609671e-04 5.082093020638002e-03
6.283706567454695e-04 8.383615104540410e-06 5.245212387576434e-03
6.283706567455060e-04 -8.383615104566514e-06 5.245212387576445e-03
3.466414920606047e-04 -3.466414920608583e-04 5.082093020639110e-03
8.383615104781001e-06 6.283706567459457e-04 5.245212387576428e-03
4.780188121796406e-05 4.780188121770755e-05 5.486038656348407e-03
4.780188121796696e-05 -4.780188121770085e-05 5.486038656347297e-03
8.383615104786832e-06 -6.283706567458896e-04 5.245212387576400e-03
-8.383615104472745e-06 6.283706567459061e-04 5.245212387576440e-03
-4.780188121770461e-05 4.780188121770284e-05 5.486038656345145e-03
-4.780188121770213e-05 -4.780188121769574e-05 5.486038656347297e-03
-8.383615104495034e-06 -6.283706567458692e-04 5.245212387576425e-03
-3.466414920609642e-04 3.466414920608478e-04 5.082093020639090e-03
-6.283706567459506e-04 8.383615104515429e-06 5.245212387574112e-03
-6.283706567459541e-04 -8.383615104504043e-06 5.245212387576424e-03
-3.466414920609213e-04 -3.466414920608165e-04 5.082093020639142e-03
6.975432543125005e-04 6.975432543128863e-04 -7.550914961922972e-04
1.219215046581627e-03 1.219215046582008e-03 -1.017780718611326e-03
1.950382322407215e-03 1.950382322407565e-03 -1.685064689021504e-03
2.004612123204695e-03 2.004612123205035e-03 -5.644253595243605e-03
1.178380331759814e-03 2.309124113830623e-05 -4.433860128759812e-04
1.878286067335775e-03 6.080996937541679e-05 -5.812921211707067e-04
2.811652336411398e-03 1.209363500176266e-04 -1.145616902006832e-03
2.802449231404496e-03 1.380773198548636e-04 -5.951418671264345e-03
1.178380331759801e-03 -2.309124113829312e-05 -4.433860128759535e-04
1.878286067335733e-03 -6.080996937536498e-05 -5.812921211707078e-04
2.811652336411368e-03 -1.209363500175812e-04 -1.145616902006851e-03
2.802449231404517e-03 -1.380773198548237e-04 -5.951418671264324e-03
6.975432543124832e-04 -6.975432543128628e-04 -7.550914961922540e-04
1.219215046581550e-03 -1.219215046581943e-03 -1.017780718611277e-03
1.950382322407109e-03 -1.950382322407504e-03 -1.685064689021559e-03
2.004612123204662e-03 -2.004612123204987e-03 -5.644253595243547e-03
2.309124113856890e-05 1.178380331760213e-03 -4.433860128759458e-04
6.080996937566029e-05 1.878286067336192e-03 -5.812921211707257e-04
1.209363500178500e-04 2.811652336411828e-03 -1.145616902006817e-03
1.380773198551116e-04 2.802449231404837e-03 -5.951418671264356e-03
8.649813906345817e-05 8.649813906318901e-05 -2.803744162512695e-05
1.366181183493314e-04 1.366181183490659e-04 -3.624197959916082e-05
2.074220319151555e-04 2.074220319148938e-04 -4.836927223166210e-04
2.180237378637338e-04 2.180237378635180e-04 -6.446845031440537e-03
8.649813906345582e-05 -8.649813906319423e-05 -2.803744162512697e-05
1.366181183493265e-04 -1.366181183490668e-04 -3.624197959916003e-05
2.074220319151557e-04 -2.074220319148886e-04 -4.836927223166138e-04
2.180237378637526e-04 -2.180237378634491e-04 -6.446845031440453e-03
2.309124113855524e-05 -1.178380331760272e-03 -4.433860128759738e-04
6.080996937561361e-05 -1.878286067336220e-03 -5.812921211706925e-04
1.209363500178442e-04 -2.811652336411799e-03 -1.145616902006801e-03
1.380773198551502e-04 -2.802449231404776e-03 -5.951418671264237e-03
-2.309124113825285e-05 1.178380331760152e-03 -4.433860128759451e-04
-6.080996937535879e-05 1.878286067336150e-03 -5.812921211707493e-04
-1.209363500175723e-04 2.811652336411830e-03 -1.145616902006820e-03
-1.380773198547669e-04 2.802449231404831e-03 -5.951418671264263e-03
-8.649813906319302e-05 8.649813906318481e-05 -2.803744162512519e-05
-1.366181183490658e-04 1.366181183490620e-04 -3.624197959916168e-05
-2.074220319148871e-04 2.074220319148935e-04 -4.836927223166168e-04
-2.180237378634219e-04 2.180237378634904e-04 -6.446845031440496e-03
-8.649813906318952e-05 -8.649813906318729e-05 -2.803744162512730e-05
-1.366181183490721e-04 -1.366181183490682e-04 -3.624197959916292e-05
-2.074220319148995e-04 -2.074220319148932e-04 -4.836927223166105e-04
-2.180237378634813e-04 -2.180237378634624e-04 -6.446845031440456e-03
-2.309124113823703e-05 -1.178380331760211e-03 -4.433860128759820e-04
-6.080996937536224e-05 -1.878286067336220e-03 -5.812921211707343e-04
-1.209363500175966e-04 -2.811652336411817e-03 -1.145616902006771e-03
-1.380773198548497e-04 -2.802449231404726e-03 -5.951418671264254e-03
-6.975432543129890e-04 6.975432543127699e-04 -7.550914961923030e-04
-1.219215046582064e-03 1.219215046581945e-03 -1.017780718611299e-03
-1.950382322407532e-03 1.950382322407543e-03 -1.685064689021475e-03
-2.004612123204953e-03 2.004612123205064e-03 -5.644253595243442e-03
-1.178380331760288e-03 2.309124113831105e-05 -4.433860128759494e-04
-1.878286067336239e-03 6.080996937537613e-05 -5.812921211706996e-04
-2.811652336411809e-03 1.209363500175684e-04 -1.145616902006771e-03
-2.802449231404697e-03 1.380773198548222e-04 -5.951418671264181e-03
-1.178380331760251e-03 -2.309124113825779e-05 -4.433860128759643e-04
-1.878286067336276e-03 -6.080996937538589e-05 -5.812921211707489e-04
-2.811652336411893e-03 -1.209363500176205e-04 -1.145616902006775e-03
-2.802449231404778e-03 -1.380773198549049e-04 -5.951418671264220e-03
-6.975432543128136e-04 -6.975432543127494e-04 -7.550914961923015e-04
-1.219215046581980e-03 -1.219215046581913e-03 -1.017780718611389e-03
-1.950382322407590e-03 -1.950382322407506e-03 -1.685064689021462e-03