<?xml version="1.0" ?> 
<!-- 
# vtk DataFile Version 3.0
-->
<VTKFile type="UnstructuredGrid" version="0.1" compressor="vtkZLibDataCompressor" byte_order="LittleEndian">
  <UnstructuredGrid>
    <FieldData>
      <DataArray type="Float64" Name="TIME" NumberOfTuples="1" format="ascii">
6.250000000000001e-02 
      </DataArray>
    </FieldData>

    <Piece NumberOfPoints="500" NumberOfCells="0" >
      <Points>
        <DataArray type="Float64" NumberOfComponents="3" format="ascii">
-4.499854306229277e-01 -4.499854306229276e-01 1.548697523158174e+00
-4.499893174214949e-01 -4.499893174214949e-01 1.647726378758197e+00
-4.499930972070614e-01 -4.499930972070614e-01 1.746582755539099e+00
-4.499960106491601e-01 -4.499960106491601e-01 1.844936711476657e+00
-4.499981982655925e-01 -4.499981982655925e-01 1.943877160031416e+00
-4.499796527298056e-01 -3.499606861059333e-01 1.548690434518789e+00
-4.499857236955344e-01 -3.499712849150490e-01 1.647718792185398e+00
-4.499909615340086e-01 -3.499814765439888e-01 1.746576224531240e+00
-4.499948389685805e-01 -3.499893191250363e-01 1.844932329635503e+00
-4.499977013144776e-01 -3.499951906094289e-01 1.943875322399124e+00
-4.499667404620457e-01 -2.499458679597132e-01 1.548677494800826e+00
-4.499785543856532e-01 -2.499616940206422e-01 1.647705627097221e+00
-4.499871732831418e-01 -2.499758322744868e-01 1.746565123703397e+00
-4.499928310228951e-01 -2.499862369257093e-01 1.844924966156697e+00
-4.499968574053255e-01 -2.499938536193283e-01 1.943872250969094e+00
-4.499466414921611e-01 -1.499515384190352e-01 1.548660679768026e+00
-4.499685100455269e-01 -1.499665386021679e-01 1.647689982822352e+00
-4.499826255861886e-01 -1.499793362075950e-01 1.746552797007334e+00
-4.499906077819530e-01 -1.499884019678956e-01 1.844917100494649e+00
-4.499959521430892e-01 -1.499948655057428e-01 1.943869028675477e+00
-4.499326174929008e-01 -4.998098764355384e-02 1.548649200053455e+00
-4.499617801986147e-01 -4.998688109876673e-02 1.647679688870236e+00
-4.499796018318605e-01 -4.999189401598218e-02 1.746544753947772e+00
-4.499891581668724e-01 -4.999547165125471e-02 1.844912037687346e+00
-4.499953677412374e-01 -4.999800410901987e-02 1.943866974493976e+00
-4.499326174929008e-01 4.998098764355385e-02 1.548649200053455e+00
-4.499617801986147e-01 4.998688109876681e-02 1.647679688870236e+00
-4.499796018318605e-01 4.999189401598219e-02 1.746544753947772e+00
-4.499891581668725e-01 4.999547165125472e-02 1.844912037687346e+00
-4.499953677412374e-01 4.999800410901988e-02 1.943866974493976e+00
-4.499466414921611e-01 1.499515384190352e-01 1.548660679768026e+00
-4.499685100455269e-01 1.499665386021680e-01 1.647689982822352e+00
-4.499826255861886e-01 1.499793362075949e-01 1.746552797007334e+00
-4.499906077819529e-01 1.499884019678957e-01 1.844917100494649e+00
-4.499959521430892e-01 1.499948655057429e-01 1.943869028675477e+00
-4.499667404620457e-01 2.499458679597132e-01 1.548677494800826e+00
-4.499785543856531e-01 2.499616940206422e-01 1.647705627097221e+00
-4.499871732831417e-01 2.499758322744869e-01 1.746565123703397e+00
-4.499928310228950e-01 2.499862369257094e-01 1.844924966156697e+00
-4.499968574053255e-01 2.499938536193284e-01 1.943872250969094e+00
-4.499796527298057e-01 3.499606861059333e-01 1.548690434518789e+00
-4.499857236955344e-01 3.499712849150491e-01 1.647718792185398e+00
-4.499909615340087e-01 3.499814765439888e-01 1.746576224531240e+00
-4.499948389685805e-01 3.499893191250363e-01 1.844932329635503e+00
-4.499977013144776e-01 3.499951906094290e-01 1.943875322399124e+00
-4.499854306229277e-01 4.499854306229277e-01 1.548697523158174e+00
-4.499893174214949e-01 4.499893174214949e-01 1.647726378758197e+00
-4.499930972070614e-01 4.499930972070614e-01 1.746582755539099e+00
-4.499960106491601e-01 4.499960106491601e-01 1.844936711476657e+00
-4.499981982655925e-01 4.499981982655925e-01 1.943877160031416e+00
-3.499606861059332e-01 -4.499796527298057e-01 1.548690434518789e+00
-3.499712849150490e-01 -4.499857236955345e-01 1.647718792185398e+00
-3.499814765439888e-01 -4.499909615340087e-01 1.746576224531240e+00
-3.499893191250362e-01 -4.499948389685805e-01 1.844932329635503e+00
-3.499951906094289e-01 -4.499977013144775e-01 1.943875322399124e+00
-3.499445377277337e-01 -3.499445377277338e-01 1.548678437220222e+00
-3.499606932453718e-01 -3.499606932453718e-01 1.647707433573774e+00
-3.499755638661025e-01 -3.499755638661025e-01 1.746567228679423e+00
-3.499861251545177e-01 -3.499861251545177e-01 1.844926547836864e+00
-3.499938413619630e-01 -3.499938413619630e-01 1.943872937245567e+00
-3.499280716006108e-01 -2.499187620905258e-01 1.548661380670052e+00
-3.499411305437345e-01 -2.499431260283200e-01 1.647686410164884e+00
-3.499649520013978e-01 -2.499670348148182e-01 1.746551046600062e+00
-3.499806215458193e-01 -2.499818849667285e-01 1.844916729303185e+00
-3.499915462140174e-01 -2.499920674459526e-01 1.943868918908368e+00
-3.499000911205586e-01 -1.499221810945468e-01 1.548635154739578e+00
-3.499133417462778e-01 -1.499477485487422e-01 1.647657411205443e+00
-3.499517042565373e-01 -1.499710301071684e-01 1.746531088046816e+00
-3.499744370349498e-01 -1.499845387855800e-01 1.844905870542040e+00
-3.499890728001902e-01 -1.499933234615592e-01 1.943864626606889e+00
-3.498762737471700e-01 -4.996599805815893e-02 1.548612544447983e+00
-3.498936577997679e-01 -4.997920002449502e-02 1.647636856281610e+00
-3.499429778308528e-01 -4.998866725531730e-02 1.746517926942788e+00
-3.499703954598252e-01 -4.999394207949207e-02 1.844898821958448e+00
-3.499874730921196e-01 -4.999739528802442e-02 1.943861869431920e+00
-3.498762737471700e-01 4.996599805815895e-02 1.548612544447983e+00
-3.498936577997679e-01 4.997920002449508e-02 1.647636856281610e+00
-3.499429778308528e-01 4.998866725531732e-02 1.746517926942788e+00
-3.499703954598252e-01 4.999394207949205e-02 1.844898821958448e+00
-3.499874730921196e-01 4.999739528802442e-02 1.943861869431919e+00
-3.499000911205586e-01 1.499221810945470e-01 1.548635154739578e+00
-3.499133417462778e-01 1.499477485487422e-01 1.647657411205443e+00
-3.499517042565373e-01 1.499710301071683e-01 1.746531088046816e+00
-3.499744370349498e-01 1.499845387855800e-01 1.844905870542040e+00
-3.499890728001901e-01 1.499933234615593e-01 1.943864626606889e+00
-3.499280716006108e-01 2.499187620905259e-01 1.548661380670052e+00
-3.499411305437345e-01 2.499431260283200e-01 1.647686410164884e+00
-3.499649520013978e-01 2.499670348148182e-01 1.746551046600062e+00
-3.499806215458194e-01 2.499818849667285e-01 1.844916729303185e+00
-3.499915462140174e-01 2.499920674459527e-01 1.943868918908368e+00
-3.499445377277338e-01 3.499445377277338e-01 1.548678437220222e+00
-3.499606932453718e-01 3.499606932453718e-01 1.647707433573774e+00
-3.499755638661025e-01 3.499755638661025e-01 1.746567228679423e+00
-3.499861251545178e-01 3.499861251545178e-01 1.844926547836864e+00
-3.499938413619629e-01 3.499938413619631e-01 1.943872937245567e+00
-3.499606861059332e-01 4.499796527298056e-01 1.548690434518789e+00
-3.499712849150490e-01 4.499857236955344e-01 1.647718792185398e+00
-3.499814765439888e-01 4.499909615340088e-01 1.746576224531240e+00
-3.499893191250362e-01 4.499948389685806e-01 1.844932329635503e+00
-3.499951906094289e-01 4.499977013144776e-01 1.943875322399124e+00
-2.499458679597132e-01 -4.499667404620457e-01 1.548677494800826e+00
-2.499616940206422e-01 -4.499785543856531e-01 1.647705627097221e+00
-2.499758322744869e-01 -4.499871732831417e-01 1.746565123703397e+00
-2.499862369257093e-01 -4.499928310228951e-01 1.844924966156697e+00
-2.499938536193284e-01 -4.499968574053255e-01 1.943872250969094e+00
-2.499187620905258e-01 -3.499280716006108e-01 1.548661380670052e+00
-2.499431260283200e-01 -3.499411305437345e-01 1.647686410164884e+00
-2.499670348148182e-01 -3.499649520013978e-01 1.746551046600062e+00
-2.499818849667285e-01 -3.499806215458193e-01 1.844916729303185e+00
-2.499920674459526e-01 -3.499915462140173e-01 1.943868918908368e+00
-2.498920054892260e-01 -2.498920054892260e-01 1.548670813327707e+00
-2.499121413490716e-01 -2.499121413490716e-01 1.647661891376000e+00
-2.499506042248684e-01 -2.499506042248683e-01 1.746524527343472e+00
-2.499742452381409e-01 -2.499742452381408e-01 1.844902477726060e+00
-2.499890136738548e-01 -2.499890136738548e-01 1.943863249015946e+00
-2.497443605572267e-01 -1.498778696680640e-01 1.548596809920869e+00
-2.498626601089932e-01 -1.499154408425150e-01 1.647619215990130e+00
-2.499289760005069e-01 -1.499552703658468e-01 1.746488497833618e+00
-2.499654147324004e-01 -1.499776638555769e-01 1.844885927908646e+00
-2.499856939862824e-01 -1.499906735184802e-01 1.943857059901172e+00
-2.496695241815104e-01 -4.995926591738561e-02 1.548560064919745e+00
-2.498268103889253e-01 -4.996350049954986e-02 1.647587218313796e+00
-2.499145344912842e-01 -4.998249323330536e-02 1.746464227414770e+00
-2.499596092528735e-01 -4.999122929555351e-02 1.844875117223021e+00
-2.499835373642602e-01 -4.999634708683869e-02 1.943853047784973e+00
-2.496695241815104e-01 4.995926591738561e-02 1.548560064919745e+00
-2.498268103889253e-01 4.996350049954987e-02 1.647587218313796e+00
-2.499145344912843e-01 4.998249323330537e-02 1.746464227414770e+00
-2.499596092528735e-01 4.999122929555355e-02 1.844875117223021e+00
-2.499835373642601e-01 4.999634708683871e-02 1.943853047784973e+00
-2.497443605572267e-01 1.498778696680640e-01 1.548596809920869e+00
-2.498626601089932e-01 1.499154408425150e-01 1.647619215990130e+00
-2.499289760005069e-01 1.499552703658469e-01 1.746488497833618e+00
-2.499654147324004e-01 1.499776638555770e-01 1.844885927908646e+00
-2.499856939862823e-01 1.499906735184802e-01 1.943857059901172e+00
-2.498920054892260e-01 2.498920054892261e-01 1.548670813327707e+00
-2.499121413490716e-01 2.499121413490715e-01 1.647661891376000e+00
-2.499506042248684e-01 2.499506042248685e-01 1.746524527343472e+00
-2.499742452381409e-01 2.499742452381409e-01 1.844902477726060e+00
-2.499890136738549e-01 2.499890136738550e-01 1.943863249015946e+00
[...]
  <PointData>
        <DataArray type="Float64" Name="acceleration" NumberOfComponents="3" format="ascii">
-5.891224247980172e-03 -5.891224247994763e-03 -3.467589730920026e+00
1.666101022553962e-03 1.666101022706106e-03 -2.963662278604399e+00
6.413787034182931e-03 6.413787034346556e-03 -1.664046020598986e+00
8.331134325421010e-03 8.331134325442042e-03 2.102118652349236e-01
5.872464231837630e-03 5.872464231632298e-03 2.611593554644553e-01
-1.363029546264561e-02 -1.861040465604038e-02 -3.451541649671507e+00
-4.634148982895363e-03 1.844413655382597e-03 -2.951262881205135e+00
3.587659892388972e-03 1.583803423479570e-02 -1.657115403192419e+00
7.673757266498892e-03 2.170302295839602e-02 2.129111179786338e-01
5.831702509330947e-03 1.537503325623569e-02 2.614536785838997e-01
-1.156578505550350e-02 -2.121872453098678e-02 -3.427070983943097e+00
-1.158349066109302e-02 1.943578954563934e-03 -2.930479124091606e+00
-1.468936417725918e-03 1.931179523892908e-02 -1.644665135298679e+00
6.413145929628720e-03 2.698674302829895e-02 2.176775791592114e-01
5.796997984572240e-03 1.909899913262014e-02 2.619211991688708e-01
5.138675115665813e-03 -1.540872860094929e-02 -3.405961419280372e+00
-1.370137830312559e-02 2.334821321078609e-03 -2.911321973936694e+00
-6.041375988208250e-03 1.593992475376026e-02 -1.632504346057501e+00
5.215189832240986e-03 2.203904927762158e-02 2.224121865830659e-01
5.829999228705722e-03 1.552686480310892e-02 2.623227651063242e-01
1.801038674060863e-02 -6.940172664328827e-03 -3.392590910385218e+00
-1.462628982815413e-02 5.412285770931502e-04 -2.899158602679561e+00
-8.967615459591495e-03 6.051212146360143e-03 -1.624910052819063e+00
4.500071117996800e-03 8.425939043329236e-03 2.253384694627831e-01
5.874960927560650e-03 5.930385201439601e-03 2.625672029419359e-01
1.801038674064926e-02 6.940172664800060e-03 -3.392590910385292e+00
-1.462628982816061e-02 -5.412285768278376e-04 -2.899158602679703e+00
-8.967615459589986e-03 -6.051212146343468e-03 -1.624910052819164e+00
4.500071117913437e-03 -8.425939043438056e-03 2.253384694627785e-01
5.874960927339299e-03 -5.930385201606334e-03 2.625672029419359e-01
5.138675115877320e-03 1.540872860078961e-02 -3.405961419280486e+00
-1.370137830300765e-02 -2.334821321233550e-03 -2.911321973936999e+00
-6.041375988040286e-03 -1.593992475386489e-02 -1.632504346057700e+00
5.215189832344117e-03 -2.203904927775982e-02 2.224121865828734e-01
5.829999228703469e-03 -1.552686480330607e-02 2.623227651061448e-01
-1.156578505531014e-02 2.121872453068837e-02 -3.427070983943143e+00
-1.158349066096341e-02 -1.943578954816420e-03 -2.930479124091819e+00
-1.468936417633196e-03 -1.931179523900062e-02 -1.644665135298718e+00
6.413145929838184e-03 -2.698674302807294e-02 2.176775791591612e-01
5.796997984961580e-03 -1.909899913219833e-02 2.619211991687660e-01
-1.363029546259952e-02 1.861040465599520e-02 -3.451541649671503e+00
-4.634148982856201e-03 -1.844413655384689e-03 -2.951262881205287e+00
3.587659892396384e-03 -1.583803423473929e-02 -1.657115403192274e+00
7.673757266531682e-03 -2.170302295827412e-02 2.129111179789211e-01
5.831702509518782e-03 -1.537503325595830e-02 2.614536785842034e-01
-5.891224248013126e-03 5.891224248026269e-03 -3.467589730920032e+00
1.666101022514827e-03 -1.666101022556416e-03 -2.963662278604446e+00
6.413787034191460e-03 -6.413787034245631e-03 -1.664046020598947e+00
8.331134325444542e-03 -8.331134325535856e-03 2.102118652351181e-01
5.872464231939511e-03 -5.872464231973074e-03 2.611593554646685e-01
-1.861040465600870e-02 -1.363029546263860e-02 -3.451541649671562e+00
1.844413655376956e-03 -4.634148982788532e-03 -2.951262881205274e+00
1.583803423468490e-02 3.587659892462325e-03 -1.657115403192375e+00
2.170302295833268e-02 7.673757266485961e-03 2.129111179787790e-01
1.537503325628085e-02 5.831702509250356e-03 2.614536785840738e-01
-2.984472637719977e-02 -2.984472637724942e-02 -3.438032669568079e+00
-1.181108930375450e-02 -1.181108930367644e-02 -2.935130458869853e+00
7.554878781269506e-03 7.554878781466277e-03 -1.644667953449384e+00
1.953888714481187e-02 1.953888714484332e-02 2.186278454436146e-01
1.527548905206554e-02 1.527548905191209e-02 2.624935052270398e-01
-5.034767166053567e-02 -2.018669641007380e-02 -3.421824255863163e+00
-2.808682781886013e-02 -6.918214955999025e-03 -2.915862075358680e+00
-5.594031044953739e-03 9.842981270667040e-03 -1.625788551210818e+00
1.545111692083859e-02 2.416085187276530e-02 2.292161600415954e-01
1.514478162623724e-02 1.907452707048835e-02 2.642297090822048e-01
-6.595879909336326e-02 -9.946847148835036e-03 -3.413171139807778e+00
-3.696404375434720e-02 -1.352227948364508e-03 -2.904282526041264e+00
-1.632263467921778e-02 8.962230565771412e-03 -1.611050356683130e+00
1.156268579291646e-02 1.987488913557956e-02 2.399061064958681e-01
1.517040634699004e-02 1.560272539054795e-02 2.658108736380598e-01
-7.972430210346501e-02 -4.982241640311005e-03 -3.409145658439768e+00
-4.197558009102304e-02 -1.520427378600152e-03 -2.897967691138873e+00
-2.312889721055990e-02 3.047611921284569e-03 -1.602077831699138e+00
9.127146526823596e-03 7.581221772273868e-03 2.467477246256733e-01
1.524235204562314e-02 5.972455247275618e-03 2.667347901673001e-01
-7.972430210359648e-02 4.982241640774955e-03 -3.409145658439853e+00
-4.197558009108279e-02 1.520427378841315e-03 -2.897967691138995e+00
-2.312889721052763e-02 -3.047611921211894e-03 -1.602077831699183e+00
9.127146526827948e-03 -7.581221772393665e-03 2.467477246254663e-01
1.524235204546972e-02 -5.972455247628758e-03 2.667347901670905e-01
-6.595879909344524e-02 9.946847148884698e-03 -3.413171139807887e+00
-3.696404375438054e-02 1.352227948354602e-03 -2.904282526041598e+00
-1.632263467917290e-02 -8.962230565851556e-03 -1.611050356683254e+00
1.156268579300056e-02 -1.987488913543692e-02 2.399061064956363e-01
1.517040634702720e-02 -1.560272539018764e-02 2.658108736378821e-01
-5.034767166049513e-02 2.018669640968151e-02 -3.421824255863160e+00
-2.808682781888462e-02 6.918214955739251e-03 -2.915862075359026e+00
-5.594031044986588e-03 -9.842981270819524e-03 -1.625788551210789e+00
1.545111692095966e-02 -2.416085187271495e-02 2.292161600418052e-01
1.514478162642379e-02 -1.907452707024549e-02 2.642297090823575e-01
-2.984472637723975e-02 2.984472637706396e-02 -3.438032669568042e+00
-1.181108930370481e-02 1.181108930360540e-02 -2.935130458869990e+00
7.554878781330025e-03 -7.554878781358063e-03 -1.644667953449316e+00
1.953888714475161e-02 -1.953888714480913e-02 2.186278454438937e-01
1.527548905189766e-02 -1.527548905189741e-02 2.624935052272406e-01
-1.861040465602343e-02 1.363029546270761e-02 -3.451541649671577e+00
1.844413655423910e-03 4.634148982899364e-03 -2.951262881205255e+00
1.583803423479102e-02 -3.587659892405637e-03 -1.657115403192318e+00
2.170302295832197e-02 -7.673757266584952e-03 2.129111179789094e-01
1.537503325607181e-02 -5.831702509489065e-03 2.614536785842638e-01
-2.121872453084579e-02 -1.156578505544785e-02 -3.427070983942995e+00
1.943578954797456e-03 -1.158349066108211e-02 -2.930479124091850e+00
1.931179523898469e-02 -1.468936417803131e-03 -1.644665135298751e+00
2.698674302825173e-02 6.413145929683868e-03 2.176775791593735e-01
1.909899913254953e-02 5.796997984690931e-03 2.619211991690431e-01
-2.018669640987768e-02 -5.034767166058759e-02 -3.421824255863041e+00
-6.918214955814078e-03 -2.808682781883174e-02 -2.915862075358898e+00
9.842981270711912e-03 -5.594031044789551e-03 -1.625788551210823e+00
2.416085187278366e-02 1.545111692093233e-02 2.292161600418101e-01
1.907452707050531e-02 1.514478162614774e-02 2.642297090823380e-01
-1.509565047355330e-02 -1.509565047371663e-02 -3.403585096666600e+00
-1.888567258086630e-02 -1.888567258103020e-02 -2.888414072592989e+00
-2.792354598743848e-03 -2.792354598772291e-03 -1.603119320878762e+00
1.904130390964809e-02 1.904130390957128e-02 2.501239390504331e-01
1.903807669899998e-02 1.903807669894739e-02 2.682070860835832e-01
1.221752397411372e-01 -2.280339781479905e-03 -3.474544139409173e+00
-1.602061354200786e-02 -8.084498522031188e-03 -2.869811412174423e+00
-9.901486686154145e-03 6.968213399239967e-04 -1.592613041013425e+00
1.462210828656896e-02 1.600159284621077e-02 2.706588024663175e-01
1.922634239353709e-02 1.573068845825657e-02 2.718886443083939e-01
1.704532217789197e-01 -2.319754262542022e-02 -3.492928549641721e+00
-1.373693117447940e-02 -4.502479758522224e-03 -2.855192624781632e+00
-1.404009731878603e-02 -7.065398898843923e-04 -1.587464498928985e+00
1.186780722120582e-02 5.993159418425347e-03 2.840167323980938e-01
1.942701624455080e-02 6.041809653603512e-03 2.740580848380993e-01
1.704532217788217e-01 2.319754262563870e-02 -3.492928549641722e+00
-1.373693117446659e-02 4.502479758711515e-03 -2.855192624781628e+00
-1.404009731870035e-02 7.065398900562929e-04 -1.587464498928967e+00
1.186780722133179e-02 -5.993159418472481e-03 2.840167323977785e-01
1.942701624464977e-02 -6.041809654011398e-03 2.740580848377494e-01
1.221752397408698e-01 2.280339781602748e-03 -3.474544139409180e+00
-1.602061354206231e-02 8.084498521954499e-03 -2.869811412174577e+00
-9.901486686094845e-03 -6.968213401281816e-04 -1.592613041013520e+00
1.462210828658965e-02 -1.600159284617328e-02 2.706588024660428e-01
1.922634239349621e-02 -1.573068845784124e-02 2.718886443081789e-01
-1.509565047374266e-02 1.509565047337802e-02 -3.403585096666611e+00
-1.888567258095570e-02 1.888567258079985e-02 -2.888414072593285e+00
-2.792354598723683e-03 2.792354598609296e-03 -1.603119320878701e+00
1.904130390955742e-02 -1.904130390954777e-02 2.501239390506615e-01
1.903807669884823e-02 -1.903807669877726e-02 2.682070860837555e-01
-2.018669641003754e-02 5.034767166044792e-02 -3.421824255862900e+00
-6.918214955852018e-03 2.808682781893329e-02 -2.915862075358906e+00
9.842981270744294e-03 5.594031045050662e-03 -1.625788551210773e+00
2.416085187275969e-02 -1.545111692092828e-02 2.292161600418778e-01
1.907452707037192e-02 -1.514478162633677e-02 2.642297090823948e-01
-2.121872453088046e-02 1.156578505559091e-02 -3.427070983942911e+00
1.943578954878002e-03 1.158349066109024e-02 -2.930479124091746e+00
1.931179523903032e-02 1.468936417709492e-03 -1.644665135298740e+00
2.698674302821289e-02 -6.413145929706700e-03 2.176775791592958e-01
1.909899913246851e-02 -5.796997984644711e-03 2.619211991689774e-01
-1.540872860087660e-02 5.138675115823340e-03 -3.405961419280065e+00
2.334821321285911e-03 -1.370137830304478e-02 -2.911321973936966e+00
1.593992475396417e-02 -6.041375988181555e-03 -1.632504346057732e+00
2.203904927766497e-02 5.215189832266172e-03 2.224121865831215e-01
1.552686480304961e-02 5.829999228637988e-03 2.623227651063953e-01
-9.946847148706410e-03 -6.595879909343853e-02 -3.413171139807493e+00
-1.352227948139835e-03 -3.696404375435101e-02 -2.904282526041509e+00
8.962230565934337e-03 -1.632263467908673e-02 -1.611050356683318e+00
1.987488913542880e-02 1.156268579300287e-02 2.399061064958097e-01
1.560272539024029e-02 1.517040634688174e-02 2.658108736380527e-01
-2.280339781424442e-03 1.221752397409201e-01 -3.474544139408983e+00
-8.084498521868908e-03 -1.602061354218742e-02 -2.869811412174454e+00
6.968213400559718e-04 -9.901486686187544e-03 -1.592613041013540e+00
1.600159284612478e-02 1.462210828653912e-02 2.706588024661269e-01
1.573068845793946e-02 1.922634239349759e-02 2.718886443082056e-01
1.756955915124205e-01 1.756955915124054e-01 -3.964487669994811e+00
2.749651076769556e-03 2.749651076570379e-03 -2.875422719883422e+00
-1.838690499304005e-03 -1.838690499456515e-03 -1.597235318289443e+00
1.301581011617519e-02 1.301581011626380e-02 2.996479092446576e-01
1.609464550137837e-02 1.609464550174755e-02 2.774184875132679e-01
2.561008859611545e-01 -1.658928889821069e-02 -4.196814046566994e+00
1.155143667734347e-02 -1.279876276559352e-03 -2.869532893882377e+00
-3.141819609020400e-03 -2.244573656625605e-03 -1.603872337447184e+00
1.119805304843138e-02 4.721542071136018e-03 3.185949637505046e-01
1.641394170446914e-02 6.211071723230360e-03 2.806483113523139e-01
2.561008859612310e-01 1.658928889837351e-02 -4.196814046566923e+00
1.155143667739744e-02 1.279876276777190e-03 -2.869532893882356e+00
-3.141819608999575e-03 2.244573656899288e-03 -1.603872337447139e+00
1.119805304855461e-02 -4.721542070963509e-03 3.185949637503536e-01
1.641394170469908e-02 -6.211071723382076e-03 2.806483113521256e-01
1.756955915124237e-01 -1.756955915123790e-01 -3.964487669994749e+00
2.749651076780213e-03 -2.749651076683625e-03 -2.875422719883415e+00
-1.838690499133497e-03 1.838690499302087e-03 -1.597235318289434e+00
1.301581011649750e-02 -1.301581011638477e-02 2.996479092443824e-01
1.609464550163923e-02 -1.609464550168186e-02 2.774184875129855e-01
-2.280339781456286e-03 -1.221752397412282e-01 -3.474544139409010e+00
-8.084498521848789e-03 1.602061354190067e-02 -2.869811412174558e+00
6.968213402524442e-04 9.901486685958522e-03 -1.592613041013436e+00
1.600159284622867e-02 -1.462210828658021e-02 2.706588024661558e-01
1.573068845785421e-02 -1.922634239338067e-02 2.718886443082127e-01
-9.946847148771892e-03 6.595879909331628e-02 -3.413171139807391e+00
-1.352227948292360e-03 3.696404375447763e-02 -2.904282526041447e+00
8.962230565894515e-03 1.632263467924654e-02 -1.611050356683201e+00
1.987488913548168e-02 -1.156268579298190e-02 2.399061064958496e-01
1.560272539019506e-02 -1.517040634693754e-02 2.658108736379905e-01
-1.540872860091717e-02 -5.138675115589021e-03 -3.405961419279917e+00
2.334821321205825e-03 1.370137830309645e-02 -2.911321973936865e+00
1.593992475386033e-02 6.041375988137177e-03 -1.632504346057728e+00
2.203904927769995e-02 -5.215189832312525e-03 2.224121865830875e-01
1.552686480307994e-02 -5.829999228607591e-03 2.623227651064237e-01
-6.940172664396589e-03 1.801038674088699e-02 -3.392590910384894e+00
5.412285771634396e-04 -1.462628982798978e-02 -2.899158602679589e+00
6.051212146593964e-03 -8.967615459595778e-03 -1.624910052819318e+00
8.425939043533693e-03 4.500071117875215e-03 2.253384694626968e-01
5.930385201507300e-03 5.874960927438593e-03 2.625672029420016e-01
-4.982241640306923e-03 -7.972430210351995e-02 -3.409145658439454e+00
-1.520427378610223e-03 -4.197558009114079e-02 -2.897967691139044e+00
3.047611921320170e-03 -2.312889721059839e-02 -1.602077831699447e+00
7.581221772306676e-03 9.127146526806806e-03 2.467477246254215e-01
5.972455247306120e-03 1.524235204542793e-02 2.667347901671935e-01
-2.319754262538468e-02 1.704532217786668e-01 -3.492928549641484e+00
-4.502479758563228e-03 -1.373693117460506e-02 -2.855192624781653e+00
-7.065398898988077e-04 -1.404009731875434e-02 -1.587464498929121e+00
5.993159418461191e-03 1.186780722122247e-02 2.840167323976939e-01
6.041809653665938e-03 1.942701624440456e-02 2.740580848377459e-01
-1.658928889821985e-02 2.561008859610799e-01 -4.196814046566859e+00
-1.279876276488159e-03 1.155143667718657e-02 -2.869532893882276e+00
-2.244573656596139e-03 -3.141819609169393e-03 -1.603872337447327e+00
4.721542071000756e-03 1.119805304840861e-02 3.185949637501146e-01
6.211071722935441e-03 1.641394170466329e-02 2.806483113519658e-01
-1.185877021250135e-02 -1.185877021239869e-02 -4.547491731052844e+00
2.831069961341254e-03 2.831069961304895e-03 -2.870908619098394e+00
-3.258568780569058e-03 -3.258568780554836e-03 -1.619362118961626e+00
3.925176919391455e-03 3.925176919614365e-03 3.413233486112324e-01
6.357388042453224e-03 6.357388042873387e-03 2.844715946434722e-01
-1.185877021248002e-02 1.185877021263527e-02 -4.547491731052801e+00
2.831069961318247e-03 -2.831069961088541e-03 -2.870908619098439e+00
-3.258568780600549e-03 3.258568780844825e-03 -1.619362118961559e+00
3.925176919379213e-03 -3.925176919259882e-03 3.413233486112017e-01
6.357388042524584e-03 -6.357388042721701e-03 2.844715946433745e-01
-1.658928889827170e-02 -2.561008859611352e-01 -4.196814046566863e+00
-1.279876276603687e-03 -1.155143667730143e-02 -2.869532893882259e+00
-2.244573656652466e-03 3.141819609159322e-03 -1.603872337447120e+00
4.721542071063780e-03 -1.119805304851429e-02 3.185949637500063e-01
6.211071723213519e-03 -1.641394170471388e-02 2.806483113518503e-01
-2.319754262537288e-02 -1.704532217789905e-01 -3.492928549641590e+00
-4.502479758539868e-03 1.373693117430397e-02 -2.855192624781635e+00
-7.065398898465226e-04 1.404009731844315e-02 -1.587464498928961e+00
5.993159418433004e-03 -1.186780722143833e-02 2.840167323975782e-01
6.041809653678802e-03 -1.942701624460750e-02 2.740580848377157e-01
-4.982241640287872e-03 7.972430210336960e-02 -3.409145658439549e+00
-1.520427378665395e-03 4.197558009110848e-02 -2.897967691138978e+00
3.047611921303490e-03 2.312889721054969e-02 -1.602077831699183e+00
7.581221772234992e-03 -9.127146526797851e-03 2.467477246253780e-01
5.972455247185935e-03 -1.524235204546139e-02 2.667347901669803e-01
-6.940172664408502e-03 -1.801038674061886e-02 -3.392590910384864e+00
5.412285770613638e-04 1.462628982823148e-02 -2.899158602679557e+00
6.051212146512618e-03 8.967615459691063e-03 -1.624910052819229e+00
8.425939043464769e-03 -4.500071117927469e-03 2.253384694626475e-01
5.930385201365916e-03 -5.874960927310666e-03 2.625672029418702e-01
6.940172664674124e-03 1.801038674086467e-02 -3.392590910384933e+00
-5.412285769003225e-04 -1.462628982807043e-02 -2.899158602679623e+00
-6.051212146349867e-03 -8.967615459668614e-03 -1.624910052819296e+00
-8.425939043210458e-03 4.500071117860180e-03 2.253384694627460e-01
-5.930385201343937e-03 5.874960927448524e-03 2.625672029419857e-01
4.982241640515207e-03 -7.972430210359498e-02 -3.409145658439602e+00
1.520427378640291e-03 -4.197558009129031e-02 -2.897967691139128e+00
-3.047611921274930e-03 -2.312889721069595e-02 -1.602077831699344e+00
-7.581221772109344e-03 9.127146526709243e-03 2.467477246254763e-01
-5.972455247178602e-03 1.524235204531310e-02 2.667347901670905e-01
2.319754262555135e-02 1.704532217786859e-01 -3.492928549641567e+00
4.502479758587153e-03 -1.373693117446222e-02 -2.855192624781695e+00
7.065398899506977e-04 -1.404009731861056e-02 -1.587464498929031e+00
-5.993159418405931e-03 1.186780722121098e-02 2.840167323976013e-01
-6.041809653777258e-03 1.942701624429215e-02 2.740580848376712e-01
1.658928889849991e-02 2.561008859611307e-01 -4.196814046566779e+00
1.279876276817908e-03 1.155143667727696e-02 -2.869532893882303e+00
2.244573656873190e-03 -3.141819609166313e-03 -1.603872337447341e+00
-4.721542070943090e-03 1.119805304839753e-02 3.185949637498837e-01
-6.211071723316982e-03 1.641394170458356e-02 2.806483113517242e-01
1.185877021271106e-02 -1.185877021248178e-02 -4.547491731052768e+00
-2.831069961044505e-03 2.831069961195573e-03 -2.870908619098459e+00
3.258568780803079e-03 -3.258568780660597e-03 -1.619362118961664e+00
-3.925176919363427e-03 3.925176919548824e-03 3.413233486110636e-01
-6.357388042828372e-03 6.357388042877304e-03 2.844715946432679e-01
1.185877021254256e-02 1.185877021255005e-02 -4.547491731052765e+00
-2.831069961182150e-03 -2.831069961177511e-03 -2.870908619098470e+00
3.258568780705412e-03 3.258568780794969e-03 -1.619362118961605e+00
-3.925176919458880e-03 -3.925176919299686e-03 3.413233486110943e-01
-6.357388042863218e-03 -6.357388042660452e-03 2.844715946432341e-01
1.658928889822608e-02 -2.561008859611372e-01 -4.196814046566884e+00
1.279876276624004e-03 -1.155143667731877e-02 -2.869532893882249e+00
2.244573656672654e-03 3.141819609150181e-03 -1.603872337447170e+00
-4.721542071177870e-03 -1.119805304850024e-02 3.185949637499670e-01
-6.211071723402704e-03 -1.641394170460728e-02 2.806483113518929e-01
2.319754262548851e-02 -1.704532217788392e-01 -3.492928549641661e+00
4.502479758592947e-03 1.373693117436487e-02 -2.855192624781653e+00
7.065398898355248e-04 1.404009731847470e-02 -1.587464498929027e+00
-5.993159418545684e-03 -1.186780722142884e-02 2.840167323975706e-01
-6.041809653743910e-03 -1.942701624460549e-02 2.740580848377618e-01
4.982241640633810e-03 7.972430210345025e-02 -3.409145658439655e+00
1.520427378815224e-03 4.197558009116126e-02 -2.897967691139075e+00
-3.047611921252890e-03 2.312889721060107e-02 -1.602077831699207e+00
-7.581221772210569e-03 -9.127146526699759e-03 2.467477246253607e-01