<?xml version="1.0" ?> 
<!-- 
# vtk DataFile Version 3.0
-->
<VTKFile type="UnstructuredGrid" version="0.1" compressor="vtkZLibDataCompressor" byte_order="LittleEndian">
  <UnstructuredGrid>
    <FieldData>
      <DataArray type="Float64" Name="TIME" NumberOfTuples="1" format="ascii">
1.250000000000001e-01 
      </DataArray>
    </FieldData>

    <Piece NumberOfPoints="80" NumberOfCells="0" >
      <Points>
        <DataArray type="Float64" NumberOfComponents="3" format="ascii">
-1.500000000000000e-01 -1.500000000000001e-01 1.038987024997953e+00
-1.500000000000000e-01 -5.000000000000007e-02 1.038987024997953e+00
-1.500000000000000e-01 4.999999999999991e-02 1.038987024997953e+00
-1.500000000000000e-01 1.500000000000000e-01 1.038987024997953e+00
-5.000000000000001e-02 -1.500000000000001e-01 1.038987024997953e+00
-5.000000000000001e-02 -5.000000000000007e-02 1.038987024997953e+00
-5.000000000000001e-02 4.999999999999991e-02 1.038987024997953e+00
-5.000000000000001e-02 1.500000000000000e-01 1.038987024997953e+00
4.999999999999997e-02 -1.500000000000001e-01 1.038987024997953e+00
4.999999999999997e-02 -5.000000000000007e-02 1.038987024997953e+00
4.999999999999997e-02 4.999999999999991e-02 1.038987024997953e+00
4.999999999999997e-02 1.500000000000000e-01 1.038987024997953e+00
1.500000000000001e-01 -1.500000000000001e-01 1.038987024997953e+00
1.500000000000001e-01 -5.000000000000007e-02 1.038987024997953e+00
1.500000000000001e-01 4.999999999999991e-02 1.038987024997953e+00
1.500000000000001e-01 1.500000000000000e-01 1.038987024997953e+00
-1.500000000000000e-01 -1.500000000000001e-01 1.138987024997953e+00
-1.500000000000000e-01 -1.500000000000001e-01 1.238987024997953e+00
-1.500000000000000e-01 -1.500000000000001e-01 1.338987024997953e+00
-1.500000000000000e-01 -1.500000000000001e-01 1.438987024997953e+00
-1.500000000000000e-01 -5.000000000000007e-02 1.138987024997953e+00
-1.500000000000000e-01 -5.000000000000007e-02 1.238987024997953e+00
-1.500000000000000e-01 -5.000000000000007e-02 1.338987024997953e+00
-1.500000000000000e-01 -5.000000000000007e-02 1.438987024997953e+00
-1.500000000000000e-01 4.999999999999991e-02 1.138987024997953e+00
-1.500000000000000e-01 4.999999999999991e-02 1.238987024997953e+00
-1.500000000000000e-01 4.999999999999991e-02 1.338987024997953e+00
-1.500000000000000e-01 4.999999999999991e-02 1.438987024997953e+00
-1.500000000000000e-01 1.500000000000000e-01 1.138987024997953e+00
-1.500000000000000e-01 1.500000000000000e-01 1.238987024997953e+00
-1.500000000000000e-01 1.500000000000000e-01 1.338987024997953e+00
-1.500000000000000e-01 1.500000000000000e-01 1.438987024997953e+00
-5.000000000000001e-02 -1.500000000000001e-01 1.138987024997953e+00
-5.000000000000001e-02 -1.500000000000001e-01 1.238987024997953e+00
-5.000000000000001e-02 -1.500000000000001e-01 1.338987024997953e+00
-5.000000000000001e-02 -1.500000000000001e-01 1.438987024997953e+00
-5.000000000000001e-02 -5.000000000000007e-02 1.138987024997953e+00
-5.000000000000001e-02 -5.000000000000007e-02 1.238987024997953e+00
-5.000000000000001e-02 -5.000000000000007e-02 1.338987024997953e+00
-5.000000000000001e-02 -5.000000000000007e-02 1.438987024997953e+00
-5.000000000000001e-02 4.999999999999991e-02 1.138987024997953e+00
-5.000000000000001e-02 4.999999999999991e-02 1.238987024997953e+00
-5.000000000000001e-02 4.999999999999991e-02 1.338987024997953e+00
-5.000000000000001e-02 4.999999999999991e-02 1.438987024997953e+00
-5.000000000000001e-02 1.500000000000000e-01 1.138987024997953e+00
-5.000000000000001e-02 1.500000000000000e-01 1.238987024997953e+00
-5.000000000000001e-02 1.500000000000000e-01 1.338987024997953e+00
-5.000000000000001e-02 1.500000000000000e-01 1.438987024997953e+00
4.999999999999997e-02 -1.500000000000001e-01 1.138987024997953e+00
4.999999999999997e-02 -1.500000000000001e-01 1.238987024997953e+00
4.999999999999997e-02 -1.500000000000001e-01 1.338987024997953e+00
4.999999999999997e-02 -1.500000000000001e-01 1.438987024997953e+00
4.999999999999997e-02 -5.000000000000007e-02 1.138987024997953e+00
4.999999999999997e-02 -5.000000000000007e-02 1.238987024997953e+00
4.999999999999997e-02 -5.000000000000007e-02 1.338987024997953e+00
4.999999999999997e-02 -5.000000000000007e-02 1.438987024997953e+00
4.999999999999997e-02 4.999999999999991e-02 1.138987024997953e+00
4.999999999999997e-02 4.999999999999991e-02 1.238987024997953e+00
4.999999999999997e-02 4.999999999999991e-02 1.338987024997953e+00
4.999999999999997e-02 4.999999999999991e-02 1.438987024997953e+00
4.999999999999997e-02 1.500000000000000e-01 1.138987024997953e+00
4.999999999999997e-02 1.500000000000000e-01 1.238987024997953e+00
4.999999999999997e-02 1.500000000000000e-01 1.338987024997953e+00
4.999999999999997e-02 1.500000000000000e-01 1.438987024997953e+00
1.500000000000001e-01 -1.500000000000001e-01 1.138987024997953e+00
1.500000000000001e-01 -1.500000000000001e-01 1.238987024997953e+00
1.500000000000001e-01 -1.500000000000001e-01 1.338987024997953e+00
1.500000000000001e-01 -1.500000000000001e-01 1.438987024997953e+00
1.500000000000001e-01 -5.000000000000007e-02 1.138987024997953e+00
1.500000000000001e-01 -5.000000000000007e-02 1.238987024997953e+00
1.500000000000001e-01 -5.000000000000007e-02 1.338987024997953e+00
1.500000000000001e-01 -5.000000000000007e-02 1.438987024997953e+00
1.500000000000001e-01 4.999999999999991e-02 1.138987024997953e+00
1.500000000000001e-01 4.999999999999991e-02 1.238987024997953e+00
1.500000000000001e-01 4.999999999999991e-02 1.338987024997953e+00
1.500000000000001e-01 4.999999999999991e-02 1.438987024997953e+00
1.500000000000001e-01 1.500000000000000e-01 1.138987024997953e+00
1.500000000000001e-01 1.500000000000000e-01 1.238987024997953e+00
1.500000000000001e-01 1.500000000000000e-01 1.338987024997953e+00
1.500000000000001e-01 1.500000000000000e-01 1.438987024997953e+00
        </DataArray>
      </Points>

      <Cells>
        <DataArray type="Int32" Name="connectivity" format="ascii">

        </DataArray>
        <DataArray type="Int32" Name="offsets" format="ascii">

        </DataArray>
        <DataArray type="UInt8" Name="types" format="ascii">

        </DataArray>
      </Cells>

  <PointData>
        <DataArray type="Float64" Name="acceleration" NumberOfComponents="3" format="ascii">
-5.489987019224673e-14 4.382217726628192e-15 -2.350034526833083e-01
-5.498668206133417e-14 4.382217726628190e-15 -2.350034526833014e-01
-5.507349393042161e-14 4.382217726628188e-15 -2.350034526832944e-01
-5.516030579950905e-14 4.382217726628185e-15 -2.350034526832875e-01
-5.489987019224673e-14 4.469029595715633e-15 -2.350034526833184e-01
-5.498668206133417e-14 4.469029595715631e-15 -2.350034526833115e-01
-5.507349393042161e-14 4.469029595715629e-15 -2.350034526833046e-01
-5.516030579950905e-14 4.469029595715627e-15 -2.350034526832976e-01
-5.489987019224673e-14 4.555841464803077e-15 -2.350034526833286e-01
-5.498668206133417e-14 4.555841464803074e-15 -2.350034526833216e-01
-5.507349393042161e-14 4.555841464803073e-15 -2.350034526833147e-01
-5.516030579950905e-14 4.555841464803070e-15 -2.350034526833078e-01
-5.489987019224673e-14 4.642653333890518e-15 -2.350034526833387e-01
-5.498668206133417e-14 4.642653333890516e-15 -2.350034526833318e-01
-5.507349393042161e-14 4.642653333890514e-15 -2.350034526833248e-01
-5.516030579950905e-14 4.642653333890512e-15 -2.350034526833179e-01
-4.475916600838799e-14 -2.541490391051569e-15 -2.350034526833083e-01
-3.461846182452923e-14 -9.465198508731347e-15 -2.350034526833083e-01
-2.447775764067047e-14 -1.638890662641112e-14 -2.350034526833083e-01
-1.433705345681173e-14 -2.331261474409089e-14 -2.350034526833083e-01
-4.484597787747543e-14 -2.541490391051572e-15 -2.350034526833014e-01
-3.470527369361667e-14 -9.465198508731349e-15 -2.350034526833014e-01
-2.456456950975791e-14 -1.638890662641113e-14 -2.350034526833014e-01
-1.442386532589917e-14 -2.331261474409089e-14 -2.350034526833014e-01
-4.493278974656288e-14 -2.541490391051574e-15 -2.350034526832944e-01
-3.479208556270411e-14 -9.465198508731352e-15 -2.350034526832944e-01
-2.465138137884535e-14 -1.638890662641113e-14 -2.350034526832944e-01
-1.451067719498661e-14 -2.331261474409089e-14 -2.350034526832944e-01
-4.501960161565032e-14 -2.541490391051576e-15 -2.350034526832875e-01
-3.487889743179156e-14 -9.465198508731353e-15 -2.350034526832875e-01
-2.473819324793279e-14 -1.638890662641113e-14 -2.350034526832875e-01
-1.459748906407405e-14 -2.331261474409089e-14 -2.350034526832875e-01
-4.475916600838799e-14 -2.454678521964128e-15 -2.350034526833184e-01
-3.461846182452923e-14 -9.378386639643905e-15 -2.350034526833184e-01
-2.447775764067047e-14 -1.630209475732368e-14 -2.350034526833184e-01
-1.433705345681173e-14 -2.322580287500344e-14 -2.350034526833184e-01
-4.484597787747543e-14 -2.454678521964130e-15 -2.350034526833115e-01
-3.470527369361667e-14 -9.378386639643907e-15 -2.350034526833115e-01
-2.456456950975791e-14 -1.630209475732368e-14 -2.350034526833115e-01
-1.442386532589917e-14 -2.322580287500345e-14 -2.350034526833115e-01
-4.493278974656288e-14 -2.454678521964132e-15 -2.350034526833046e-01
-3.479208556270411e-14 -9.378386639643910e-15 -2.350034526833046e-01
-2.465138137884535e-14 -1.630209475732368e-14 -2.350034526833046e-01
-1.451067719498661e-14 -2.322580287500345e-14 -2.350034526833046e-01
-4.501960161565032e-14 -2.454678521964134e-15 -2.350034526832976e-01
-3.487889743179156e-14 -9.378386639643912e-15 -2.350034526832976e-01
-2.473819324793279e-14 -1.630209475732369e-14 -2.350034526832976e-01
-1.459748906407405e-14 -2.322580287500345e-14 -2.350034526832976e-01
-4.475916600838799e-14 -2.367866652876686e-15 -2.350034526833286e-01
-3.461846182452923e-14 -9.291574770556462e-15 -2.350034526833286e-01
-2.447775764067047e-14 -1.621528288823624e-14 -2.350034526833286e-01
-1.433705345681173e-14 -2.313899100591600e-14 -2.350034526833286e-01
-4.484597787747543e-14 -2.367866652876688e-15 -2.350034526833216e-01
-3.470527369361667e-14 -9.291574770556464e-15 -2.350034526833216e-01
-2.456456950975791e-14 -1.621528288823624e-14 -2.350034526833216e-01
-1.442386532589917e-14 -2.313899100591600e-14 -2.350034526833216e-01
-4.493278974656288e-14 -2.367866652876691e-15 -2.350034526833147e-01
-3.479208556270411e-14 -9.291574770556467e-15 -2.350034526833147e-01
-2.465138137884535e-14 -1.621528288823624e-14 -2.350034526833147e-01
-1.451067719498661e-14 -2.313899100591600e-14 -2.350034526833147e-01
-4.501960161565032e-14 -2.367866652876693e-15 -2.350034526833078e-01
-3.487889743179156e-14 -9.291574770556468e-15 -2.350034526833078e-01
-2.473819324793279e-14 -1.621528288823624e-14 -2.350034526833078e-01
-1.459748906407405e-14 -2.313899100591601e-14 -2.350034526833078e-01
-4.475916600838799e-14 -2.281054783789245e-15 -2.350034526833387e-01
-3.461846182452923e-14 -9.204762901469020e-15 -2.350034526833387e-01
-2.447775764067047e-14 -1.612847101914880e-14 -2.350034526833387e-01
-1.433705345681173e-14 -2.305217913682856e-14 -2.350034526833387e-01
-4.484597787747543e-14 -2.281054783789247e-15 -2.350034526833318e-01
-3.470527369361667e-14 -9.204762901469022e-15 -2.350034526833318e-01
-2.456456950975791e-14 -1.612847101914880e-14 -2.350034526833318e-01
-1.442386532589917e-14 -2.305217913682856e-14 -2.350034526833318e-01
-4.493278974656288e-14 -2.281054783789249e-15 -2.350034526833248e-01
-3.479208556270411e-14 -9.204762901469025e-15 -2.350034526833248e-01
-2.465138137884535e-14 -1.612847101914880e-14 -2.350034526833248e-01
-1.451067719498661e-14 -2.305217913682856e-14 -2.350034526833248e-01
-4.501960161565032e-14 -2.281054783789251e-15 -2.350034526833179e-01
-3.487889743179156e-14 -9.204762901469027e-15 -2.350034526833179e-01
-2.473819324793279e-14 -1.612847101914880e-14 -2.350034526833179e-01
-1.459748906407405e-14 -2.305217913682856e-14 -2.350034526833179e-01
        </DataArray>
        <DataArray type="Float64" Name="body frame relative position" NumberOfComponents="3" format="ascii">
-1.500000000000000e-01 -1.500000000000000e-01 -2.000000000000000e-01
-1.500000000000000e-01 -5.000000000000002e-02 -2.000000000000000e-01
-1.500000000000000e-01 4.999999999999996e-02 -2.000000000000000e-01
-1.500000000000000e-01 1.500000000000001e-01 -2.000000000000000e-01
-5.000000000000002e-02 -1.500000000000000e-01 -2.000000000000000e-01
-5.000000000000002e-02 -5.000000000000002e-02 -2.000000000000000e-01
-5.000000000000002e-02 4.999999999999996e-02 -2.000000000000000e-01
-5.000000000000002e-02 1.500000000000001e-01 -2.000000000000000e-01
4.999999999999995e-02 -1.500000000000000e-01 -2.000000000000000e-01
4.999999999999995e-02 -5.000000000000002e-02 -2.000000000000000e-01
4.999999999999995e-02 4.999999999999996e-02 -2.000000000000000e-01
4.999999999999995e-02 1.500000000000001e-01 -2.000000000000000e-01
1.500000000000001e-01 -1.500000000000000e-01 -2.000000000000000e-01
1.500000000000001e-01 -5.000000000000002e-02 -2.000000000000000e-01
1.500000000000001e-01 4.999999999999996e-02 -2.000000000000000e-01
1.500000000000001e-01 1.500000000000001e-01 -2.000000000000000e-01
-1.500000000000000e-01 -1.500000000000000e-01 -1.000000000000001e-01
-1.500000000000000e-01 -1.500000000000000e-01 0.000000000000000e+00
-1.500000000000000e-01 -1.500000000000000e-01 1.000000000000001e-01
-1.500000000000000e-01 -1.500000000000000e-01 2.000000000000000e-01
-1.500000000000000e-01 -5.000000000000002e-02 -1.000000000000001e-01
-1.500000000000000e-01 -5.000000000000002e-02 0.000000000000000e+00
-1.500000000000000e-01 -5.000000000000002e-02 1.000000000000001e-01
-1.500000000000000e-01 -5.000000000000002e-02 2.000000000000000e-01
-1.500000000000000e-01 4.999999999999996e-02 -1.000000000000001e-01
-1.500000000000000e-01 4.999999999999996e-02 0.000000000000000e+00
-1.500000000000000e-01 4.999999999999996e-02 1.000000000000001e-01
-1.500000000000000e-01 4.999999999999996e-02 2.000000000000000e-01
-1.500000000000000e-01 1.500000000000001e-01 -1.000000000000001e-01
-1.500000000000000e-01 1.500000000000001e-01 0.000000000000000e+00
-1.500000000000000e-01 1.500000000000001e-01 1.000000000000001e-01
-1.500000000000000e-01 1.500000000000001e-01 2.000000000000000e-01
-5.000000000000002e-02 -1.500000000000000e-01 -1.000000000000001e-01
-5.000000000000002e-02 -1.500000000000000e-01 0.000000000000000e+00
-5.000000000000002e-02 -1.500000000000000e-01 1.000000000000001e-01
-5.000000000000002e-02 -1.500000000000000e-01 2.000000000000000e-01
-5.000000000000002e-02 -5.000000000000002e-02 -1.000000000000001e-01
-5.000000000000002e-02 -5.000000000000002e-02 0.000000000000000e+00
-5.000000000000002e-02 -5.000000000000002e-02 1.000000000000001e-01
-5.000000000000002e-02 -5.000000000000002e-02 2.000000000000000e-01
-5.000000000000002e-02 4.999999999999996e-02 -1.000000000000001e-01
-5.000000000000002e-02 4.999999999999996e-02 0.000000000000000e+00
-5.000000000000002e-02 4.999999999999996e-02 1.000000000000001e-01
-5.000000000000002e-02 4.999999999999996e-02 2.000000000000000e-01
-5.000000000000002e-02 1.500000000000001e-01 -1.000000000000001e-01
-5.000000000000002e-02 1.500000000000001e-01 0.000000000000000e+00
-5.000000000000002e-02 1.500000000000001e-01 1.000000000000001e-01
-5.000000000000002e-02 1.500000000000001e-01 2.000000000000000e-01
4.999999999999995e-02 -1.500000000000000e-01 -1.000000000000001e-01
4.999999999999995e-02 -1.500000000000000e-01 0.000000000000000e+00
4.999999999999995e-02 -1.500000000000000e-01 1.000000000000001e-01
4.999999999999995e-02 -1.500000000000000e-01 2.000000000000000e-01
4.999999999999995e-02 -5.000000000000002e-02 -1.000000000000001e-01
4.999999999999995e-02 -5.000000000000002e-02 0.000000000000000e+00
4.999999999999995e-02 -5.000000000000002e-02 1.000000000000001e-01
4.999999999999995e-02 -5.000000000000002e-02 2.000000000000000e-01
4.999999999999995e-02 4.999999999999996e-02 -1.000000000000001e-01
4.999999999999995e-02 4.999999999999996e-02 0.000000000000000e+00
4.999999999999995e-02 4.999999999999996e-02 1.000000000000001e-01
4.999999999999995e-02 4.999999999999996e-02 2.000000000000000e-01
4.999999999999995e-02 1.500000000000001e-01 -1.000000000000001e-01
4.999999999999995e-02 1.500000000000001e-01 0.000000000000000e+00
4.999999999999995e-02 1.500000000000001e-01 1.000000000000001e-01
4.999999999999995e-02 1.500000000000001e-01 2.000000000000000e-01
1.500000000000001e-01 -1.500000000000000e-01 -1.000000000000001e-01
1.500000000000001e-01 -1.500000000000000e-01 0.000000000000000e+00
1.500000000000001e-01 -1.500000000000000e-01 1.000000000000001e-01
1.500000000000001e-01 -1.500000000000000e-01 2.000000000000000e-01
1.500000000000001e-01 -5.000000000000002e-02 -1.000000000000001e-01
1.500000000000001e-01 -5.000000000000002e-02 0.000000000000000e+00
1.500000000000001e-01 -5.000000000000002e-02 1.000000000000001e-01
1.500000000000001e-01 -5.000000000000002e-02 2.000000000000000e-01
1.500000000000001e-01 4.999999999999996e-02 -1.000000000000001e-01
1.500000000000001e-01 4.999999999999996e-02 0.000000000000000e+00
1.500000000000001e-01 4.999999999999996e-02 1.000000000000001e-01
1.500000000000001e-01 4.999999999999996e-02 2.000000000000000e-01
1.500000000000001e-01 1.500000000000001e-01 -1.000000000000001e-01
1.500000000000001e-01 1.500000000000001e-01 0.000000000000000e+00
1.500000000000001e-01 1.500000000000001e-01 1.000000000000001e-01
1.500000000000001e-01 1.500000000000001e-01 2.000000000000000e-01
        </DataArray>
        <DataArray type="Float64" Name="boundary pressure" format="ascii">
0.000000000000000e+00
0.000000000000000e+00
0.000000000000000e+00
0.000000000000000e+00
0.000000000000000e+00
0.000000000000000e+00
0.000000000000000e+00
0.000000000000000e+00
0.000000000000000e+00
0.000000000000000e+00
0.000000000000000e+00
0.000000000000000e+00
0.000000000000000e+00
0.000000000000000e+00
0.000000000000000e+00
0.000000000000000e+00
0.000000000000000e+00
0.000000000000000e+00
0.000000000000000e+00
0.000000000000000e+00
0.000000000000000e+00
0.000000000000000e+00
0.000000000000000e+00
0.000000000000000e+00
0.000000000000000e+00
0.000000000000000e+00
0.000000000000000e+00
0.000000000000000e+00
0.000000000000000e+00
0.000000000000000e+00
0.000000000000000e+00
0.000000000000000e+00
0.000000000000000e+00
0.000000000000000e+00
0.000000000000000e+00
0.000000000000000e+00
0.000000000000000e+00
0.000000000000000e+00
0.000000000000000e+00
0.000000000000000e+00
0.000000000000000e+00
0.000000000000000e+00
0.000000000000000e+00
0.000000000000000e+00
0.000000000000000e+00
0.000000000000000e+00
0.000000000000000e+00
0.000000000000000e+00
0.000000000000000e+00
0.000000000000000e+00
0.000000000000000e+00
0.000000000000000e+00
0.000000000000000e+00
0.000000000000000e+00
0.000000000000000e+00
0.000000000000000e+00
0.000000000000000e+00
0.000000000000000e+00
0.000000000000000e+00
0.000000000000000e+00
0.000000000000000e+00
0.000000000000000e+00
0.000000000000000e+00
0.000000000000000e+00
0.000000000000000e+00
0.000000000000000e+00
0.000000000000000e+00
0.000000000000000e+00
0.000000000000000e+00
0.000000000000000e+00
0.000000000000000e+00
0.000000000000000e+00
0.000000000000000e+00
0.000000000000000e+00
0.000000000000000e+00
0.000000000000000e+00
0.000000000000000e+00
0.000000000000000e+00
0.000000000000000e+00
0.000000000000000e+00
        </DataArray>
        <DataArray type="Float64" Name="boundary velocity" NumberOfComponents="3" format="ascii">
0.000000000000000e+00 0.000000000000000e+00 0.000000000000000e+00
0.000000000000000e+00 0.000000000000000e+00 0.000000000000000e+00
0.000000000000000e+00 0.000000000000000e+00 0.000000000000000e+00
0.000000000000000e+00 0.000000000000000e+00 0.000000000000000e+00
0.000000000000000e+00 0.000000000000000e+00 0.000000000000000e+00
0.000000000000000e+00 0.000000000000000e+00 0.000000000000000e+00
0.000000000000000e+00 0.000000000000000e+00 0.000000000000000e+00
0.000000000000000e+00 0.000000000000000e+00 0.000000000000000e+00
0.000000000000000e+00 0.000000000000000e+00 0.000000000000000e+00
0.000000000000000e+00 0.000000000000000e+00 0.000000000000000e+00
0.000000000000000e+00 0.000000000000000e+00 0.000000000000000e+00
0.000000000000000e+00 0.000000000000000e+00 0.000000000000000e+00
0.000000000000000e+00 0.000000000000000e+00 0.000000000000000e+00
0.000000000000000e+00 0.000000000000000e+00 0.000000000000000e+00
0.000000000000000e+00 0.000000000000000e+00 0.000000000000000e+00
0.000000000000000e+00 0.000000000000000e+00 0.000000000000000e+00
0.000000000000000e+00 0.000000000000000e+00 0.000000000000000e+00
0.000000000000000e+00 0.000000000000000e+00 0.000000000000000e+00
0.000000000000000e+00 0.000000000000000e+00 0.000000000000000e+00
0.000000000000000e+00 0.000000000000000e+00 0.000000000000000e+00
0.000000000000000e+00 0.000000000000000e+00 0.000000000000000e+00
0.000000000000000e+00 0.000000000000000e+00 0.000000000000000e+00
0.000000000000000e+00 0.000000000000000e+00 0.000000000000000e+00
0.000000000000000e+00 0.000000000000000e+00 0.000000000000000e+00
0.000000000000000e+00 0.000000000000000e+00 0.000000000000000e+00
0.000000000000000e+00 0.000000000000000e+00 0.000000000000000e+00
0.000000000000000e+00 0.000000000000000e+00 0.000000000000000e+00
0.000000000000000e+00 0.000000000000000e+00 0.000000000000000e+00
0.000000000000000e+00 0.000000000000000e+00 0.000000000000000e+00
0.000000000000000e+00 0.000000000000000e+00 0.000000000000000e+00
0.000000000000000e+00 0.000000000000000e+00 0.000000000000000e+00
0.000000000000000e+00 0.000000000000000e+00 0.000000000000000e+00
0.000000000000000e+00 0.000000000000000e+00 0.000000000000000e+00
0.000000000000000e+00 0.000000000000000e+00 0.000000000000000e+00
0.000000000000000e+00 0.000000000000000e+00 0.000000000000000e+00
0.000000000000000e+00 0.000000000000000e+00 0.000000000000000e+00
0.000000000000000e+00 0.000000000000000e+00 0.000000000000000e+00
0.000000000000000e+00 0.000000000000000e+00 0.000000000000000e+00
0.000000000000000e+00 0.000000000000000e+00 0.000000000000000e+00
0.000000000000000e+00 0.000000000000000e+00 0.000000000000000e+00
0.000000000000000e+00 0.000000000000000e+00 0.000000000000000e+00
0.000000000000000e+00 0.000000000000000e+00 0.000000000000000e+00
0.000000000000000e+00 0.000000000000000e+00 0.000000000000000e+00
0.000000000000000e+00 0.000000000000000e+00 0.000000000000000e+00
0.000000000000000e+00 0.000000000000000e+00 0.000000000000000e+00
0.000000000000000e+00 0.000000000000000e+00 0.000000000000000e+00
0.000000000000000e+00 0.000000000000000e+00 0.000000000000000e+00
0.000000000000000e+00 0.000000000000000e+00 0.000000000000000e+00
0.000000000000000e+00 0.000000000000000e+00 0.000000000000000e+00
0.000000000000000e+00 0.000000000000000e+00 0.000000000000000e+00
0.000000000000000e+00 0.000000000000000e+00 0.000000000000000e+00
0.000000000000000e+00 0.000000000000000e+00 0.000000000000000e+00
0.000000000000000e+00 0.000000000000000e+00 0.000000000000000e+00
0.000000000000000e+00 0.000000000000000e+00 0.000000000000000e+00
0.000000000000000e+00 0.000000000000000e+00 0.000000000000000e+00
0.000000000000000e+00 0.000000000000000e+00 0.000000000000000e+00
0.000000000000000e+00 0.000000000000000e+00 0.000000000000000e+00
0.000000000000000e+00 0.000000000000000e+00 0.000000000000000e+00
0.000000000000000e+00 0.000000000000000e+00 0.000000000000000e+00
0.000000000000000e+00 0.000000000000000e+00 0.000000000000000e+00
0.000000000000000e+00 0.000000000000000e+00 0.000000000000000e+00
0.000000000000000e+00 0.000000000000000e+00 0.000000000000000e+00
0.000000000000000e+00 0.000000000000000e+00 0.000000000000000e+00
0.000000000000000e+00 0.000000000000000e+00 0.000000000000000e+00
0.000000000000000e+00 0.000000000000000e+00 0.000000000000000e+00
0.000000000000000e+00 0.000000000000000e+00 0.000000000000000e+00
0.000000000000000e+00 0.000000000000000e+00 0.000000000000000e+00
0.000000000000000e+00 0.000000000000000e+00 0.000000000000000e+00
0.000000000000000e+00 0.000000000000000e+00 0.000000000000000e+00
0.000000000000000e+00 0.000000000000000e+00 0.000000000000000e+00
0.000000000000000e+00 0.000000000000000e+00 0.000000000000000e+00
0.000000000000000e+00 0.000000000000000e+00 0.000000000000000e+00
0.000000000000000e+00 0.000000000000000e+00 0.000000000000000e+00
0.000000000000000e+00 0.000000000000000e+00 0.000000000000000e+00
0.000000000000000e+00 0.000000000000000e+00 0.000000000000000e+00
0.000000000000000e+00 0.000000000000000e+00 0.000000000000000e+00
0.000000000000000e+00 0.000000000000000e+00 0.000000000000000e+00
0.000000000000000e+00 0.000000000000000e+00 0.000000000000000e+00
0.000000000000000e+00 0.000000000000000e+00 0.000000000000000e+00
0.000000000000000e+00 0.000000000000000e+00 0.000000000000000e+00
        </DataArray>
        <DataArray type="Float64" Name="force" NumberOfComponents="3" format="ascii">
3.233157425953663e-03 3.233157425953668e-03 2.957570686372477e-02
3.345325735371090e-03 6.104865829749447e-04 1.531795102075927e-02
3.345325735371148e-03 -6.104865829750102e-04 1.531795102076041e-02
3.233157425953711e-03 -3.233157425953640e-03 2.957570686372356e-02
6.104865829749937e-04 3.345325735371050e-03 1.531795102075927e-02
2.040119375319915e-04 2.040119375319869e-04 -1.585557929480894e-04
2.040119375319972e-04 -2.040119375319882e-04 -1.585557929480892e-04
6.104865829750218e-04 -3.345325735371104e-03 1.531795102076157e-02
-6.104865829750412e-04 3.345325735371069e-03 1.531795102075925e-02
-2.040119375319953e-04 2.040119375319917e-04 -1.585557929480903e-04
-2.040119375319925e-04 -2.040119375319910e-04 -1.585557929480902e-04
-6.104865829750349e-04 -3.345325735371081e-03 1.531795102075926e-02
-3.233157425953796e-03 3.233157425953785e-03 2.957570686372352e-02
-3.345325735371156e-03 6.104865829750526e-04 1.531795102076042e-02
-3.345325735371110e-03 -6.104865829750096e-04 1.531795102075922e-02
-3.233157425953720e-03 -3.233157425953797e-03 2.957570686372352e-02
4.958174654617464e-03 4.958174654617497e-03 -4.472981864038351e-03
6.430005204130518e-03 6.430005204130559e-03 -3.967186650315904e-03
7.008654927795104e-03 7.008654927795230e-03 -3.466248238808861e-03
4.962646293077657e-03 4.962646293077575e-03 -7.375366609090263e-03
6.246262114752783e-03 4.710464699239348e-04 -2.796771467248804e-03
8.881199632557646e-03 4.965020157969063e-04 -2.476457989568308e-03
1.021560739728631e-02 4.713465045095496e-04 -2.457288654654964e-03
7.398864569054850e-03 2.151230870785380e-04 -8.768174811350060e-03
6.246262114752865e-03 -4.710464699240298e-04 -2.796771467248782e-03
8.881199632557664e-03 -4.965020157969376e-04 -2.476457989568285e-03
1.021560739728634e-02 -4.713465045095800e-04 -2.457288654654982e-03
7.398864569054862e-03 -2.151230870786461e-04 -8.768174811350140e-03
4.958174654617700e-03 -4.958174654617536e-03 -4.472981864038383e-03
6.430005204130639e-03 -6.430005204130626e-03 -3.967186650315821e-03
7.008654927795199e-03 -7.008654927795204e-03 -3.466248238808917e-03
4.962646293077756e-03 -4.962646293077677e-03 -7.375366609090484e-03
4.710464699239748e-04 6.246262114752766e-03 -2.796771467248830e-03
4.965020157968825e-04 8.881199632557702e-03 -2.476457989568361e-03
4.713465045095755e-04 1.021560739728640e-02 -2.457288654654893e-03
2.151230870786374e-04 7.398864569054699e-03 -8.768174811349883e-03
4.667760582522763e-04 4.667760582522740e-04 -1.984269058982041e-04
6.897801728486566e-04 6.897801728486644e-04 -1.869260776746849e-04
8.186858876655650e-04 8.186858876655723e-04 -9.892159145525382e-04
4.760396743324026e-04 4.760396743323374e-04 -1.109938405993837e-02
4.667760582522855e-04 -4.667760582522732e-04 -1.984269058982022e-04
6.897801728486592e-04 -6.897801728486621e-04 -1.869260776746846e-04
8.186858876655666e-04 -8.186858876655737e-04 -9.892159145525466e-04
4.760396743324171e-04 -4.760396743324183e-04 -1.109938405993845e-02
4.710464699240108e-04 -6.246262114752747e-03 -2.796771467248825e-03
4.965020157969312e-04 -8.881199632557707e-03 -2.476457989568375e-03
4.713465045095324e-04 -1.021560739728642e-02 -2.457288654654958e-03
2.151230870785879e-04 -7.398864569054820e-03 -8.768174811350081e-03
-4.710464699240745e-04 6.246262114752835e-03 -2.796771467248859e-03
-4.965020157969887e-04 8.881199632557771e-03 -2.476457989568339e-03
-4.713465045096088e-04 1.021560739728638e-02 -2.457288654654852e-03
-2.151230870786928e-04 7.398864569054676e-03 -8.768174811349965e-03
-4.667760582522853e-04 4.667760582522808e-04 -1.984269058982065e-04
-6.897801728486748e-04 6.897801728486708e-04 -1.869260776746862e-04
-8.186858876655795e-04 8.186858876655686e-04 -9.892159145525339e-04
-4.760396743324229e-04 4.760396743323578e-04 -1.109938405993840e-02
-4.667760582522864e-04 -4.667760582522750e-04 -1.984269058982024e-04
-6.897801728486666e-04 -6.897801728486515e-04 -1.869260776746867e-04
-8.186858876655888e-04 -8.186858876655793e-04 -9.892159145525484e-04
-4.760396743324493e-04 -4.760396743324472e-04 -1.109938405993845e-02
-4.710464699240405e-04 -6.246262114752768e-03 -2.796771467248783e-03
-4.965020157968884e-04 -8.881199632557636e-03 -2.476457989568372e-03
-4.713465045095862e-04 -1.021560739728645e-02 -2.457288654655032e-03
-2.151230870787096e-04 -7.398864569054922e-03 -8.768174811350117e-03
-4.958174654617688e-03 4.958174654617773e-03 -4.472981864038403e-03
-6.430005204130723e-03 6.430005204130796e-03 -3.967186650315880e-03
-7.008654927795341e-03 7.008654927795345e-03 -3.466248238808781e-03
-4.962646293077804e-03 4.962646293077718e-03 -7.375366609090345e-03
-6.246262114752878e-03 4.710464699240190e-04 -2.796771467248851e-03
-8.881199632557828e-03 4.965020157969381e-04 -2.476457989568358e-03
-1.021560739728648e-02 4.713465045095551e-04 -2.457288654654885e-03
-7.398864569054765e-03 2.151230870785913e-04 -8.768174811350039e-03
-6.246262114752877e-03 -4.710464699240158e-04 -2.796771467248837e-03
-8.881199632557813e-03 -4.965020157968883e-04 -2.476457989568366e-03
-1.021560739728655e-02 -4.713465045096174e-04 -2.457288654654966e-03
-7.398864569054864e-03 -2.151230870787569e-04 -8.768174811350102e-03
-4.958174654617719e-03 -4.958174654617640e-03 -4.472981864038307e-03
-6.430005204130765e-03 -6.430005204130586e-03 -3.967186650315908e-03