<?xml version="1.0" ?> 
<!-- 
# vtk DataFile Version 3.0
-->
<VTKFile type="UnstructuredGrid" version="0.1" compressor="vtkZLibDataCompressor" byte_order="LittleEndian">
  <UnstructuredGrid>
    <FieldData>
      <DataArray type="Float64" Name="TIME" NumberOfTuples="1" format="ascii">
2.500000000000002e-01 
      </DataArray>
    </FieldData>

    <Piece NumberOfPoints="500" NumberOfCells="0" >
      <Points>
        <DataArray type="Float64" NumberOfComponents="3" format="ascii">
-4.499061361853569e-01 -4.499061361853567e-01 1.518332895757261e+00
-4.499226057912311e-01 -4.499226057912310e-01 1.618429715589995e+00
-4.499296763840275e-01 -4.499296763840275e-01 1.718530130296678e+00
-4.499395935512699e-01 -4.499395935512700e-01 1.818560325373314e+00
-4.499678280962982e-01 -4.499678280962982e-01 1.918694655941633e+00
-4.498312599108034e-01 -3.497695599120222e-01 1.518316514904018e+00
-4.498804085282093e-01 -3.498067181537641e-01 1.618432306684674e+00
-4.499166118256384e-01 -3.498286756448201e-01 1.718530356120274e+00
-4.499253479031977e-01 -3.498449713267714e-01 1.818552348988896e+00
-4.499596292921308e-01 -3.499151145327624e-01 1.918689818219350e+00
-4.498353676004825e-01 -2.496391714948175e-01 1.518402109806162e+00
-4.498315440036731e-01 -2.496823369832782e-01 1.618478078868539e+00
-4.498895004859465e-01 -2.497493142627416e-01 1.718546155010834e+00
-4.499066057447755e-01 -2.497899885091430e-01 1.818552353626045e+00
-4.499469979202214e-01 -2.498865844419857e-01 1.918685725501907e+00
-4.495770763453668e-01 -1.495922717457482e-01 1.518416470182768e+00
-4.496615347723866e-01 -1.496660611149894e-01 1.618427955190505e+00
-4.498154437336291e-01 -1.497620061631165e-01 1.718498274492880e+00
-4.498750187712501e-01 -1.498109436736108e-01 1.818526339701048e+00
-4.499301883448124e-01 -1.499008124544876e-01 1.918674531848555e+00
-4.494401894532886e-01 -4.985010050744410e-02 1.518443077991909e+00
-4.495460778614212e-01 -4.986623490036064e-02 1.618396094553120e+00
-4.497642619129700e-01 -4.990836176061413e-02 1.718468973483663e+00
-4.498568615014634e-01 -4.992722546294207e-02 1.818512857768134e+00
-4.499193468586193e-01 -4.996160035802708e-02 1.918668294969552e+00
-4.494401894532886e-01 4.985010050744423e-02 1.518443077991909e+00
-4.495460778614213e-01 4.986623490036075e-02 1.618396094553120e+00
-4.497642619129699e-01 4.990836176061421e-02 1.718468973483663e+00
-4.498568615014634e-01 4.992722546294222e-02 1.818512857768135e+00
-4.499193468586193e-01 4.996160035802715e-02 1.918668294969552e+00
-4.495770763453668e-01 1.495922717457483e-01 1.518416470182768e+00
-4.496615347723865e-01 1.496660611149895e-01 1.618427955190505e+00
-4.498154437336289e-01 1.497620061631163e-01 1.718498274492880e+00
-4.498750187712499e-01 1.498109436736109e-01 1.818526339701048e+00
-4.499301883448125e-01 1.499008124544876e-01 1.918674531848555e+00
-4.498353676004826e-01 2.496391714948176e-01 1.518402109806162e+00
-4.498315440036730e-01 2.496823369832781e-01 1.618478078868539e+00
-4.498895004859465e-01 2.497493142627416e-01 1.718546155010834e+00
-4.499066057447756e-01 2.497899885091430e-01 1.818552353626044e+00
-4.499469979202212e-01 2.498865844419858e-01 1.918685725501907e+00
-4.498312599108035e-01 3.497695599120224e-01 1.518316514904017e+00
-4.498804085282093e-01 3.498067181537640e-01 1.618432306684674e+00
-4.499166118256385e-01 3.498286756448201e-01 1.718530356120274e+00
-4.499253479031977e-01 3.498449713267714e-01 1.818552348988896e+00
-4.499596292921308e-01 3.499151145327624e-01 1.918689818219350e+00
-4.499061361853568e-01 4.499061361853570e-01 1.518332895757261e+00
-4.499226057912312e-01 4.499226057912311e-01 1.618429715589995e+00
-4.499296763840275e-01 4.499296763840276e-01 1.718530130296678e+00
-4.499395935512700e-01 4.499395935512700e-01 1.818560325373314e+00
-4.499678280962981e-01 4.499678280962982e-01 1.918694655941633e+00
-3.497695599120223e-01 -4.498312599108035e-01 1.518316514904018e+00
-3.498067181537641e-01 -4.498804085282093e-01 1.618432306684674e+00
-3.498286756448200e-01 -4.499166118256385e-01 1.718530356120274e+00
-3.498449713267716e-01 -4.499253479031977e-01 1.818552348988896e+00
-3.499151145327624e-01 -4.499596292921308e-01 1.918689818219350e+00
-3.497649862001365e-01 -3.497649862001366e-01 1.518427988611908e+00
-3.497282141479257e-01 -3.497282141479257e-01 1.618422674597559e+00
-3.497789777971215e-01 -3.497789777971216e-01 1.718504199224186e+00
-3.498134745919338e-01 -3.498134745919337e-01 1.818544406289333e+00
-3.498945703018444e-01 -3.498945703018445e-01 1.918683876642415e+00
-3.500413233635081e-01 -2.492441612614432e-01 1.518723678853112e+00
-3.497838222932544e-01 -2.494602448178039e-01 1.618569445104973e+00
-3.497224663485776e-01 -2.496265534891119e-01 1.718495561497612e+00
-3.497682524739303e-01 -2.497336403248586e-01 1.818539708811225e+00
-3.498652137961069e-01 -2.498577383081826e-01 1.918683110881821e+00
-3.495186830271493e-01 -1.489692450532000e-01 1.518477930318541e+00
-3.494336150053310e-01 -1.493348503026552e-01 1.618343801145093e+00
-3.495300240805168e-01 -1.496092824395409e-01 1.718304854624553e+00
-3.496789162455548e-01 -1.497533153365302e-01 1.818468689658273e+00
-3.498257805660645e-01 -1.498727440205224e-01 1.918669223960962e+00
-3.491553644188607e-01 -4.955530640079153e-02 1.518132986863051e+00
-3.492559839750438e-01 -4.976193835303582e-02 1.618214168443863e+00
-3.494117713339888e-01 -4.984425960197585e-02 1.718175968364255e+00
-3.496248733715353e-01 -4.990491499306384e-02 1.818426119785436e+00
-3.498016691896229e-01 -4.995093849153315e-02 1.918663000686998e+00
-3.491553644188607e-01 4.955530640079166e-02 1.518132986863051e+00
-3.492559839750438e-01 4.976193835303594e-02 1.618214168443863e+00
-3.494117713339888e-01 4.984425960197592e-02 1.718175968364255e+00
-3.496248733715354e-01 4.990491499306388e-02 1.818426119785437e+00
-3.498016691896227e-01 4.995093849153320e-02 1.918663000686998e+00
-3.495186830271493e-01 1.489692450532001e-01 1.518477930318541e+00
-3.494336150053309e-01 1.493348503026553e-01 1.618343801145093e+00
-3.495300240805166e-01 1.496092824395407e-01 1.718304854624553e+00
-3.496789162455548e-01 1.497533153365302e-01 1.818468689658273e+00
-3.498257805660646e-01 1.498727440205225e-01 1.918669223960962e+00
-3.500413233635083e-01 2.492441612614432e-01 1.518723678853112e+00
-3.497838222932544e-01 2.494602448178039e-01 1.618569445104973e+00
-3.497224663485775e-01 2.496265534891119e-01 1.718495561497612e+00
-3.497682524739302e-01 2.497336403248587e-01 1.818539708811225e+00
-3.498652137961069e-01 2.498577383081827e-01 1.918683110881821e+00
-3.497649862001366e-01 3.497649862001366e-01 1.518427988611908e+00
-3.497282141479258e-01 3.497282141479258e-01 1.618422674597559e+00
-3.497789777971216e-01 3.497789777971216e-01 1.718504199224186e+00
-3.498134745919337e-01 3.498134745919339e-01 1.818544406289333e+00
-3.498945703018445e-01 3.498945703018447e-01 1.918683876642415e+00
-3.497695599120221e-01 4.498312599108034e-01 1.518316514904018e+00
-3.498067181537641e-01 4.498804085282092e-01 1.618432306684674e+00
-3.498286756448201e-01 4.499166118256385e-01 1.718530356120274e+00
-3.498449713267715e-01 4.499253479031977e-01 1.818552348988896e+00
-3.499151145327624e-01 4.499596292921308e-01 1.918689818219351e+00
-2.496391714948175e-01 -4.498353676004826e-01 1.518402109806162e+00
-2.496823369832783e-01 -4.498315440036731e-01 1.618478078868539e+00
-2.497493142627415e-01 -4.498895004859465e-01 1.718546155010834e+00
-2.497899885091429e-01 -4.499066057447755e-01 1.818552353626045e+00
-2.498865844419857e-01 -4.499469979202214e-01 1.918685725501907e+00
-2.492441612614432e-01 -3.500413233635083e-01 1.518723678853112e+00
-2.494602448178039e-01 -3.497838222932544e-01 1.618569445104973e+00
-2.496265534891120e-01 -3.497224663485775e-01 1.718495561497612e+00
-2.497336403248586e-01 -3.497682524739303e-01 1.818539708811225e+00
-2.498577383081826e-01 -3.498652137961067e-01 1.918683110881821e+00
-2.493639987175768e-01 -2.493639987175767e-01 1.520488418607949e+00
-2.493286611001262e-01 -2.493286611001262e-01 1.619147412479403e+00
-2.495128666045756e-01 -2.495128666045755e-01 1.718627154879881e+00
-2.496373060964374e-01 -2.496373060964374e-01 1.818525852310950e+00
-2.498182579009118e-01 -2.498182579009117e-01 1.918692202824626e+00
-2.457484655570523e-01 -1.489042342517867e-01 1.521034760818516e+00
-2.480762820756515e-01 -1.490193207690267e-01 1.618682450097708e+00
-2.491527363314997e-01 -1.494426118068512e-01 1.718353917484474e+00
-2.494546422313491e-01 -1.496482568115243e-01 1.818369030482157e+00
-2.497659656531157e-01 -1.498353219004246e-01 1.918670928650270e+00
-2.443318704130301e-01 -4.970929579118376e-02 1.521564621247908e+00
-2.472575672189008e-01 -4.959128287118238e-02 1.618418020157176e+00
-2.489653209126894e-01 -4.980592793892517e-02 1.718233493306995e+00
-2.493348929868872e-01 -4.986099146232094e-02 1.818271308070661e+00
-2.497353795080060e-01 -4.993750305000956e-02 1.918661379043931e+00
-2.443318704130301e-01 4.970929579118383e-02 1.521564621247907e+00
-2.472575672189008e-01 4.959128287118252e-02 1.618418020157176e+00
-2.489653209126894e-01 4.980592793892525e-02 1.718233493306995e+00
-2.493348929868872e-01 4.986099146232095e-02 1.818271308070661e+00
-2.497353795080060e-01 4.993750305000962e-02 1.918661379043931e+00
-2.457484655570524e-01 1.489042342517867e-01 1.521034760818516e+00
-2.480762820756515e-01 1.490193207690267e-01 1.618682450097708e+00
-2.491527363314997e-01 1.494426118068513e-01 1.718353917484473e+00
-2.494546422313493e-01 1.496482568115243e-01 1.818369030482157e+00
-2.497659656531156e-01 1.498353219004247e-01 1.918670928650270e+00
-2.493639987175768e-01 2.493639987175769e-01 1.520488418607949e+00
-2.493286611001261e-01 2.493286611001261e-01 1.619147412479403e+00
-2.495128666045755e-01 2.495128666045755e-01 1.718627154879881e+00
-2.496373060964375e-01 2.496373060964377e-01 1.818525852310949e+00
-2.498182579009119e-01 2.498182579009119e-01 1.918692202824626e+00
[...]
  <PointData>
        <DataArray type="Float64" Name="acceleration" NumberOfComponents="3" format="ascii">
-3.753666540255599e-02 -3.753666540261036e-02 -5.149724321566402e-01
-3.583070474155155e-02 -3.583070474157218e-02 -5.878548659280510e-01
-3.821525511920298e-02 -3.821525511932423e-02 -5.396702311601639e-01
-3.940408101654173e-02 -3.940408101666963e-02 -4.615883188256976e-01
-2.533118916037073e-02 -2.533118916038694e-02 -2.138096303234259e-01
-4.249436312050970e-02 -1.269991331755703e-01 -5.079554612776004e-01
-4.402280190506095e-02 -1.240712953470343e-01 -5.786805939023959e-01
-3.444612455807843e-02 -1.156626201536636e-01 -5.370688254974300e-01
-3.422280808852458e-02 -1.061510952679158e-01 -4.491227929962088e-01
-2.863408607586208e-02 -6.793959808730567e-02 -2.019110193329109e-01
-4.091694255647176e-02 -1.687322511805467e-01 -5.093734343519776e-01
-4.295032286460894e-02 -1.641242286442149e-01 -5.567807922702809e-01
-3.481673174101309e-02 -1.438395312557753e-01 -5.173317809519637e-01
-3.036050323931427e-02 -1.265723531106669e-01 -4.249869777586477e-01
-3.214534731857069e-02 -8.396034210665065e-02 -1.856201619065940e-01
-4.013652578479052e-02 -1.459522611759502e-01 -5.095518921759550e-01
-3.145958776484982e-02 -1.353912801853920e-01 -5.296450739363369e-01
-3.665608284908644e-02 -1.134983069550999e-01 -4.944233609129697e-01
-2.673040344136848e-02 -9.971383186536970e-02 -4.048675005689951e-01
-3.298964263846091e-02 -6.899090608332786e-02 -1.736543595621727e-01
-4.628512311410861e-02 -6.599413584787039e-02 -5.070207481172878e-01
-2.649732642709408e-02 -5.956175395458060e-02 -5.071765545773617e-01
-4.127109993882121e-02 -4.712442890976132e-02 -4.758262000189041e-01
-2.491492095297816e-02 -3.981362131509480e-02 -3.926929013388299e-01
-3.265589795227081e-02 -2.762727391815414e-02 -1.674384323592483e-01
-4.628512311398577e-02 6.599413584791801e-02 -5.070207481172471e-01
-2.649732642703611e-02 5.956175395466563e-02 -5.071765545774150e-01
-4.127109993880562e-02 4.712442890970789e-02 -4.758262000190167e-01
-2.491492095303943e-02 3.981362131491956e-02 -3.926929013388665e-01
-3.265589795230988e-02 2.762727391798733e-02 -1.674384323592675e-01
-4.013652578466698e-02 1.459522611758069e-01 -5.095518921759140e-01
-3.145958776485735e-02 1.353912801853170e-01 -5.296450739363033e-01
-3.665608284908537e-02 1.134983069551544e-01 -4.944233609131110e-01
-2.673040344137297e-02 9.971383186550282e-02 -4.048675005690183e-01
-3.298964263845545e-02 6.899090608355378e-02 -1.736543595621317e-01
-4.091694255647173e-02 1.687322511806090e-01 -5.093734343519702e-01
-4.295032286474101e-02 1.641242286442356e-01 -5.567807922701584e-01
-3.481673174117187e-02 1.438395312559133e-01 -5.173317809519730e-01
-3.036050323933970e-02 1.265723531109084e-01 -4.249869777585291e-01
-3.214534731841595e-02 8.396034210684676e-02 -1.856201619064281e-01
-4.249436312055961e-02 1.269991331756619e-01 -5.079554612776244e-01
-4.402280190518191e-02 1.240712953470367e-01 -5.786805939023109e-01
-3.444612455830116e-02 1.156626201536813e-01 -5.370688254973155e-01
-3.422280808858896e-02 1.061510952679530e-01 -4.491227929961392e-01
-2.863408607564349e-02 6.793959808727031e-02 -2.019110193328459e-01
-3.753666540257315e-02 3.753666540255381e-02 -5.149724321566507e-01
-3.583070474160237e-02 3.583070474153859e-02 -5.878548659280305e-01
-3.821525511930021e-02 3.821525511916787e-02 -5.396702311600832e-01
-3.940408101654367e-02 3.940408101643334e-02 -4.615883188256554e-01
-2.533118916025009e-02 2.533118916016701e-02 -2.138096303233879e-01
-1.269991331754889e-01 -4.249436312059144e-02 -5.079554612775971e-01
-1.240712953469465e-01 -4.402280190510243e-02 -5.786805939024104e-01
-1.156626201536211e-01 -3.444612455821064e-02 -5.370688254973860e-01
-1.061510952679345e-01 -3.422280808865891e-02 -4.491227929963189e-01
-6.793959808739695e-02 -2.863408607583099e-02 -2.019110193330011e-01
-1.523246102626175e-01 -1.523246102626911e-01 -5.137011531832436e-01
-1.436542487353538e-01 -1.436542487353975e-01 -5.572733624090611e-01
-1.179543745844309e-01 -1.179543745844231e-01 -5.177052289530393e-01
-1.017339078566664e-01 -1.017339078566177e-01 -4.457195114358817e-01
-7.533624079379937e-02 -7.533624079376415e-02 -2.021498713912389e-01
-2.312794919301756e-01 -2.083773146714601e-01 -5.077331678142655e-01
-1.839908903424616e-01 -1.766210824549989e-01 -5.204388643223435e-01
-1.309049176890767e-01 -1.516802059723667e-01 -4.873608978967283e-01
-1.056704637812180e-01 -1.259908525704825e-01 -4.226196214687201e-01
-8.428874889781128e-02 -8.852793168031516e-02 -1.973373871715867e-01
-3.530746549215093e-01 -1.975007670569234e-01 -4.758155608583516e-01
-2.376238529731320e-01 -1.496068898646410e-01 -4.751605632562843e-01
-1.458036922965516e-01 -1.243426429296329e-01 -4.625694819446397e-01
-1.112733985226171e-01 -9.960413147843225e-02 -3.954510253053911e-01
-8.763490351541850e-02 -6.934376549586890e-02 -1.921220658479029e-01
-4.618346996338660e-01 -9.900061845722273e-02 -4.318325710078204e-01
-2.853622624165243e-01 -7.102364318025825e-02 -4.388193390381682e-01
-1.636719900342777e-01 -5.626638768039482e-02 -4.404497752101712e-01
-1.176995992643026e-01 -4.114876756319969e-02 -3.732957228566839e-01
-8.804326519554956e-02 -2.747277432546263e-02 -1.884285402992724e-01
-4.618346996339145e-01 9.900061845736885e-02 -4.318325710078190e-01
-2.853622624165365e-01 7.102364318033562e-02 -4.388193390382388e-01
-1.636719900342186e-01 5.626638768038594e-02 -4.404497752102705e-01
-1.176995992641785e-01 4.114876756314574e-02 -3.732957228566587e-01
-8.804326519536615e-02 2.747277432548738e-02 -1.884285402991807e-01
-3.530746549215330e-01 1.975007670567533e-01 -4.758155608584250e-01
-2.376238529732099e-01 1.496068898644506e-01 -4.751605632563318e-01
-1.458036922964939e-01 1.243426429295805e-01 -4.625694819446124e-01
-1.112733985223458e-01 9.960413147855626e-02 -3.954510253053249e-01
-8.763490351512462e-02 6.934376549600860e-02 -1.921220658478547e-01
-2.312794919301283e-01 2.083773146714804e-01 -5.077331678143824e-01
-1.839908903425361e-01 1.766210824550188e-01 -5.204388643223757e-01
-1.309049176891238e-01 1.516802059723643e-01 -4.873608978966301e-01
-1.056704637811483e-01 1.259908525705243e-01 -4.226196214684676e-01
-8.428874889774261e-02 8.852793168047561e-02 -1.973373871713945e-01
-1.523246102626583e-01 1.523246102626800e-01 -5.137011531833272e-01
-1.436542487354304e-01 1.436542487354281e-01 -5.572733624090889e-01
-1.179543745845341e-01 1.179543745844693e-01 -5.177052289529548e-01
-1.017339078568019e-01 1.017339078566318e-01 -4.457195114356187e-01
-7.533624079390547e-02 7.533624079369756e-02 -2.021498713910249e-01
-1.269991331755710e-01 4.249436312060748e-02 -5.079554612776178e-01
-1.240712953469996e-01 4.402280190516460e-02 -5.786805939024169e-01
-1.156626201536828e-01 3.444612455822738e-02 -5.370688254973286e-01
-1.061510952680492e-01 3.422280808853367e-02 -4.491227929961953e-01
-6.793959808750688e-02 2.863408607557343e-02 -2.019110193329086e-01
-1.687322511804489e-01 -4.091694255652441e-02 -5.093734343519859e-01
-1.641242286441104e-01 -4.295032286467654e-02 -5.567807922702954e-01
-1.438395312557118e-01 -3.481673174115153e-02 -5.173317809520106e-01
-1.265723531106654e-01 -3.036050323942656e-02 -4.249869777587970e-01
-8.396034210668146e-02 -3.214534731844065e-02 -1.856201619067231e-01
-2.083773146713207e-01 -2.312794919302587e-01 -5.077331678142880e-01
-1.766210824549054e-01 -1.839908903425429e-01 -5.204388643223991e-01
-1.516802059723307e-01 -1.309049176891329e-01 -4.873608978968141e-01
-1.259908525704632e-01 -1.056704637811890e-01 -4.226196214686527e-01
-8.852793168022238e-02 -8.428874889765545e-02 -1.973373871714898e-01
-4.345922481473403e-01 -4.345922481474453e-01 -5.022044549018585e-01
-2.649799020857225e-01 -2.649799020858062e-01 -3.841270648154341e-01
-1.659312514988319e-01 -1.659312514988328e-01 -4.436208923117137e-01
-1.382674457592942e-01 -1.382674457593467e-01 -3.958648409194602e-01
-9.425937295840232e-02 -9.425937295873840e-02 -1.930424012113393e-01
-9.151862589916960e-01 -4.509103517637828e-01 -3.372764807690266e-01
-4.057747886759542e-01 -2.509886260938756e-01 -1.734250840596380e-01
-1.727507414642386e-01 -1.397738490092401e-01 -4.005032197339407e-01
-1.530612498415099e-01 -1.123063267781839e-01 -3.647553017239636e-01
-9.411375113859628e-02 -6.955247790354402e-02 -1.747554183512599e-01
-1.252355287337803e+00 -2.125125525010058e-01 -2.287425221254187e-01
-5.248701159702176e-01 -1.261031185259089e-01 -3.668660514311641e-03
-1.833803933986678e-01 -6.907765517770366e-02 -3.631216393619507e-01
-1.682561719615838e-01 -4.969584461021882e-02 -3.339096979202307e-01
-9.239340652689718e-02 -2.734480480170152e-02 -1.570369458835811e-01
-1.252355287337829e+00 2.125125525010385e-01 -2.287425221253768e-01
-5.248701159702155e-01 1.261031185259737e-01 -3.668660514283558e-03
-1.833803933986170e-01 6.907765517780809e-02 -3.631216393619915e-01
-1.682561719614739e-01 4.969584461039721e-02 -3.339096979201455e-01
-9.239340652679462e-02 2.734480480196855e-02 -1.570369458834646e-01
-9.151862589916561e-01 4.509103517637231e-01 -3.372764807690734e-01
-4.057747886759266e-01 2.509886260936852e-01 -1.734250840596138e-01
-1.727507414641432e-01 1.397738490091694e-01 -4.005032197337501e-01
-1.530612498413621e-01 1.123063267783047e-01 -3.647553017237935e-01
-9.411375113856726e-02 6.955247790360611e-02 -1.747554183511953e-01
-4.345922481473363e-01 4.345922481474463e-01 -5.022044549019659e-01
-2.649799020857269e-01 2.649799020858101e-01 -3.841270648154457e-01
-1.659312514986964e-01 1.659312514987832e-01 -4.436208923114900e-01
-1.382674457591475e-01 1.382674457591825e-01 -3.958648409192488e-01
-9.425937295850734e-02 9.425937295864231e-02 -1.930424012112265e-01
-2.083773146713669e-01 2.312794919301741e-01 -5.077331678143867e-01
-1.766210824549512e-01 1.839908903425504e-01 -5.204388643223655e-01
-1.516802059722729e-01 1.309049176891153e-01 -4.873608978967254e-01
-1.259908525704407e-01 1.056704637810477e-01 -4.226196214685337e-01
-8.852793168033581e-02 8.428874889748721e-02 -1.973373871713630e-01
-1.687322511804677e-01 4.091694255663277e-02 -5.093734343520019e-01
-1.641242286441179e-01 4.295032286479229e-02 -5.567807922702516e-01
-1.438395312556995e-01 3.481673174118580e-02 -5.173317809519915e-01
-1.265723531106845e-01 3.036050323943507e-02 -4.249869777587604e-01
-8.396034210671043e-02 3.214534731837549e-02 -1.856201619066633e-01
-1.459522611758833e-01 -4.013652578478354e-02 -5.095518921760809e-01
-1.353912801854014e-01 -3.145958776486821e-02 -5.296450739363419e-01
-1.134983069550697e-01 -3.665608284917343e-02 -4.944233609130379e-01
-9.971383186538720e-02 -2.673040344152046e-02 -4.048675005692165e-01
-6.899090608334273e-02 -3.298964263854643e-02 -1.736543595623265e-01
-1.975007670567771e-01 -3.530746549215588e-01 -4.758155608584310e-01
-1.496068898644851e-01 -2.376238529731211e-01 -4.751605632563460e-01
-1.243426429294973e-01 -1.458036922965779e-01 -4.625694819447795e-01
-9.960413147845273e-02 -1.112733985225088e-01 -3.954510253053761e-01
-6.934376549594240e-02 -8.763490351494174e-02 -1.921220658477978e-01
-4.509103517635449e-01 -9.151862589918169e-01 -3.372764807690239e-01
-2.509886260935753e-01 -4.057747886760286e-01 -1.734250840596228e-01
-1.397738490090650e-01 -1.727507414642541e-01 -4.005032197340826e-01
-1.123063267781329e-01 -1.530612498414914e-01 -3.647553017236881e-01
-6.955247790329268e-02 -9.411375113862437e-02 -1.747554183508792e-01
-1.076286610692536e+00 -1.076286610692783e+00 5.444423844537042e-01
-4.172688991294103e-01 -4.172688991297057e-01 3.498082824977403e-01
-1.434998747655514e-01 -1.434998747657192e-01 -3.236549131361269e-01
-1.286951206917420e-01 -1.286951206918947e-01 -3.416663037724810e-01
-6.516002324858802e-02 -6.516002324916007e-02 -1.231123118299644e-01
-1.549480827484786e+00 -4.304965250664908e-01 9.722644186639083e-01
-5.624663416774462e-01 -2.176220384960706e-01 7.771708221557060e-01
-1.514249167681978e-01 -7.703689397421076e-02 -2.599774344635066e-01
-1.455999624312735e-01 -6.104132265394355e-02 -3.126327874277055e-01
-6.114939857011310e-02 -2.556580255730298e-02 -7.525804867256880e-02
-1.549480827484857e+00 4.304965250665646e-01 9.722644186639325e-01
-5.624663416775488e-01 2.176220384961091e-01 7.771708221557025e-01
-1.514249167682603e-01 7.703689397431147e-02 -2.599774344634795e-01
-1.455999624313329e-01 6.104132265414188e-02 -3.126327874276276e-01
-6.114939857029716e-02 2.556580255746267e-02 -7.525804867248576e-02
-1.076286610692608e+00 1.076286610692741e+00 5.444423844536611e-01
-4.172688991294837e-01 4.172688991295289e-01 3.498082824977031e-01
-1.434998747655640e-01 1.434998747657183e-01 -3.236549131358481e-01
-1.286951206918411e-01 1.286951206920217e-01 -3.416663037725579e-01
-6.516002324905000e-02 6.516002324897212e-02 -1.231123118302048e-01
-4.509103517636014e-01 9.151862589917407e-01 -3.372764807691668e-01
-2.509886260936885e-01 4.057747886759526e-01 -1.734250840596481e-01
-1.397738490091007e-01 1.727507414641675e-01 -4.005032197336558e-01
-1.123063267781196e-01 1.530612498414114e-01 -3.647553017237592e-01
-6.955247790360455e-02 9.411375113876386e-02 -1.747554183511653e-01
-1.975007670567333e-01 3.530746549215513e-01 -4.758155608585511e-01
-1.496068898645468e-01 2.376238529732062e-01 -4.751605632563490e-01
-1.243426429295617e-01 1.458036922965209e-01 -4.625694819445617e-01
-9.960413147831568e-02 1.112733985223548e-01 -3.954510253052236e-01
-6.934376549574103e-02 8.763490351507998e-02 -1.921220658477176e-01
-1.459522611757751e-01 4.013652578484388e-02 -5.095518921760731e-01
-1.353912801853676e-01 3.145958776499401e-02 -5.296450739363456e-01
-1.134983069550780e-01 3.665608284921432e-02 -4.944233609129911e-01
-9.971383186526572e-02 2.673040344143085e-02 -4.048675005690621e-01
-6.899090608307118e-02 3.298964263829682e-02 -1.736543595621604e-01
-6.599413584806857e-02 -4.628512311420641e-02 -5.070207481174858e-01
-5.956175395474155e-02 -2.649732642717299e-02 -5.071765545773184e-01
-4.712442890977312e-02 -4.127109993895511e-02 -4.758262000189459e-01
-3.981362131511811e-02 -2.491492095332303e-02 -3.926929013390963e-01
-2.762727391821699e-02 -3.265589795271714e-02 -1.674384323593940e-01
-9.900061845744285e-02 -4.618346996337410e-01 -4.318325710078818e-01
-7.102364318041994e-02 -2.853622624162808e-01 -4.388193390381625e-01
-5.626638768045363e-02 -1.636719900342209e-01 -4.404497752103990e-01
-4.114876756339944e-02 -1.176995992642414e-01 -3.732957228569003e-01
-2.747277432584650e-02 -8.804326519515562e-02 -1.884285402992654e-01
-2.125125525009914e-01 -1.252355287337813e+00 -2.287425221253387e-01
-1.261031185259200e-01 -5.248701159702279e-01 -3.668660514327725e-03
-6.907765517776759e-02 -1.833803933986835e-01 -3.631216393623170e-01
-4.969584461052446e-02 -1.682561719615171e-01 -3.339096979201373e-01
-2.734480480225619e-02 -9.239340652670965e-02 -1.570369458832315e-01
-4.304965250664040e-01 -1.549480827485018e+00 9.722644186639531e-01
-2.176220384960574e-01 -5.624663416777420e-01 7.771708221556655e-01
-7.703689397425297e-02 -1.514249167683541e-01 -2.599774344637111e-01
-6.104132265423317e-02 -1.455999624313104e-01 -3.126327874276399e-01
-2.556580255777714e-02 -6.114939857039672e-02 -7.525804867233843e-02
-5.971297279589921e-01 -5.971297279591294e-01 1.521742259443958e+00
-2.871179532552974e-01 -2.871179532553527e-01 1.415560613127888e+00
-8.475227750206936e-02 -8.475227750206391e-02 -1.764980336896162e-01
-7.137983650725493e-02 -7.137983650711063e-02 -2.829211435297888e-01
-2.399597821562694e-02 -2.399597821549073e-02 -1.192043335641713e-03
-5.971297279591644e-01 5.971297279589637e-01 1.521742259443900e+00
-2.871179532554051e-01 2.871179532551977e-01 1.415560613127954e+00
-8.475227750211481e-02 8.475227750210428e-02 -1.764980336895251e-01
-7.137983650730934e-02 7.137983650721341e-02 -2.829211435298817e-01
-2.399597821578277e-02 2.399597821532668e-02 -1.192043335784931e-03
-4.304965250666915e-01 1.549480827485016e+00 9.722644186638967e-01
-2.176220384962224e-01 5.624663416776239e-01 7.771708221557359e-01
-7.703689397429371e-02 1.514249167683567e-01 -2.599774344633340e-01
-6.104132265413048e-02 1.455999624315271e-01 -3.126327874279004e-01
-2.556580255753658e-02 6.114939857040039e-02 -7.525804867281138e-02
-2.125125525011640e-01 1.252355287337852e+00 -2.287425221254308e-01
-1.261031185260466e-01 5.248701159701773e-01 -3.668660514381046e-03
-6.907765517789051e-02 1.833803933985411e-01 -3.631216393617724e-01
-4.969584461044817e-02 1.682561719615195e-01 -3.339096979201906e-01
-2.734480480193428e-02 9.239340652709850e-02 -1.570369458836417e-01
-9.900061845743117e-02 4.618346996339386e-01 -4.318325710079521e-01
-7.102364318035322e-02 2.853622624165321e-01 -4.388193390382771e-01
-5.626638768043599e-02 1.636719900342709e-01 -4.404497752100994e-01
-4.114876756319490e-02 1.176995992642126e-01 -3.732957228564660e-01
-2.747277432547389e-02 8.804326519558552e-02 -1.884285402990398e-01
-6.599413584798698e-02 4.628512311412644e-02 -5.070207481174943e-01
-5.956175395465812e-02 2.649732642723282e-02 -5.071765545774012e-01
-4.712442890973302e-02 4.127109993899844e-02 -4.758262000188820e-01
-3.981362131499777e-02 2.491492095303259e-02 -3.926929013387213e-01
-2.762727391803813e-02 3.265589795205518e-02 -1.674384323590640e-01
6.599413584779919e-02 -4.628512311419737e-02 -5.070207481174226e-01
5.956175395460608e-02 -2.649732642726772e-02 -5.071765545772422e-01
4.712442890972816e-02 -4.127109993906377e-02 -4.758262000189195e-01
3.981362131499158e-02 -2.491492095342566e-02 -3.926929013392548e-01
2.762727391790328e-02 -3.265589795275574e-02 -1.674384323595368e-01
9.900061845722199e-02 -4.618346996337249e-01 -4.318325710078835e-01
7.102364318020812e-02 -2.853622624162928e-01 -4.388193390381486e-01
5.626638768030058e-02 -1.636719900342455e-01 -4.404497752103892e-01
4.114876756312797e-02 -1.176995992642899e-01 -3.732957228570873e-01
2.747277432539408e-02 -8.804326519521491e-02 -1.884285402994145e-01
2.125125525009028e-01 -1.252355287337709e+00 -2.287425221253300e-01
1.261031185257885e-01 -5.248701159701542e-01 -3.668660514321710e-03
6.907765517766411e-02 -1.833803933986407e-01 -3.631216393623202e-01
4.969584461027350e-02 -1.682561719615437e-01 -3.339096979203630e-01
2.734480480176919e-02 -9.239340652683369e-02 -1.570369458834118e-01
4.304965250665440e-01 -1.549480827484997e+00 9.722644186639247e-01
2.176220384960279e-01 -5.624663416777710e-01 7.771708221556151e-01
7.703689397420466e-02 -1.514249167683448e-01 -2.599774344637197e-01
6.104132265396491e-02 -1.455999624312768e-01 -3.126327874279785e-01
2.556580255718476e-02 -6.114939857035501e-02 -7.525804867263397e-02
5.971297279590075e-01 -5.971297279592406e-01 1.521742259443851e+00
2.871179532551614e-01 -2.871179532554113e-01 1.415560613127891e+00
8.475227750207920e-02 -8.475227750206304e-02 -1.764980336895542e-01
7.137983650714971e-02 -7.137983650704956e-02 -2.829211435300243e-01
2.399597821527558e-02 -2.399597821541397e-02 -1.192043335855875e-03
5.971297279590571e-01 5.971297279589586e-01 1.521742259443786e+00
2.871179532551900e-01 2.871179532551785e-01 1.415560613127976e+00
8.475227750208948e-02 8.475227750207319e-02 -1.764980336894446e-01
7.137983650718543e-02 7.137983650723967e-02 -2.829211435301021e-01
2.399597821536104e-02 2.399597821547205e-02 -1.192043336010751e-03
4.304965250665485e-01 1.549480827484972e+00 9.722644186637889e-01
2.176220384959311e-01 5.624663416775972e-01 7.771708221557641e-01
7.703689397412718e-02 1.514249167682888e-01 -2.599774344632634e-01
6.104132265406970e-02 1.455999624315655e-01 -3.126327874278169e-01
2.556580255761013e-02 6.114939857074024e-02 -7.525804867269892e-02
2.125125525009220e-01 1.252355287337855e+00 -2.287425221254634e-01
1.261031185258162e-01 5.248701159702841e-01 -3.668660514334849e-03
6.907765517769852e-02 1.833803933986158e-01 -3.631216393617646e-01
4.969584461041324e-02 1.682561719615527e-01 -3.339096979199850e-01
2.734480480219495e-02 9.239340652700433e-02 -1.570369458834200e-01
9.900061845723637e-02 4.618346996339724e-01 -4.318325710078829e-01