<?xml version="1.0" ?> 
<!-- 
# vtk DataFile Version 3.0
-->
<VTKFile type="UnstructuredGrid" version="0.1" compressor="vtkZLibDataCompressor" byte_order="LittleEndian">
  <UnstructuredGrid>
    <FieldData>
      <DataArray type="Float64" Name="TIME" NumberOfTuples="1" format="ascii">
0.000000000000000e+00 
      </DataArray>
    </FieldData>

    <Piece NumberOfPoints="420" NumberOfCells="0" >
      <Points>
        <DataArray type="Float64" NumberOfComponents="3" format="ascii">
-4.500000000000000e-01 -4.500000000000000e-01 1.050000000000000e+00
-4.500000000000000e-01 -3.500000000000000e-01 1.050000000000000e+00
-4.500000000000000e-01 -2.500000000000000e-01 1.050000000000000e+00
-4.500000000000000e-01 -1.500000000000000e-01 1.050000000000000e+00
-4.500000000000000e-01 -4.999999999999999e-02 1.050000000000000e+00
-4.500000000000000e-01 4.999999999999999e-02 1.050000000000000e+00
-4.500000000000000e-01 1.500000000000001e-01 1.050000000000000e+00
-4.500000000000000e-01 2.500000000000001e-01 1.050000000000000e+00
-4.500000000000000e-01 3.500000000000000e-01 1.050000000000000e+00
-4.500000000000000e-01 4.500000000000000e-01 1.050000000000000e+00
-3.500000000000000e-01 -4.500000000000000e-01 1.050000000000000e+00
-3.500000000000000e-01 -3.500000000000000e-01 1.050000000000000e+00
-3.500000000000000e-01 -2.500000000000000e-01 1.050000000000000e+00
-3.500000000000000e-01 -1.500000000000000e-01 1.050000000000000e+00
-3.500000000000000e-01 -4.999999999999999e-02 1.050000000000000e+00
-3.500000000000000e-01 4.999999999999999e-02 1.050000000000000e+00
-3.500000000000000e-01 1.500000000000001e-01 1.050000000000000e+00
-3.500000000000000e-01 2.500000000000001e-01 1.050000000000000e+00
-3.500000000000000e-01 3.500000000000000e-01 1.050000000000000e+00
-3.500000000000000e-01 4.500000000000000e-01 1.050000000000000e+00
-2.500000000000000e-01 -4.500000000000000e-01 1.050000000000000e+00
-2.500000000000000e-01 -3.500000000000000e-01 1.050000000000000e+00
-2.500000000000000e-01 -2.500000000000000e-01 1.050000000000000e+00
-2.500000000000000e-01 -1.500000000000000e-01 1.050000000000000e+00
-2.500000000000000e-01 -4.999999999999999e-02 1.050000000000000e+00
-2.500000000000000e-01 4.999999999999999e-02 1.050000000000000e+00
-2.500000000000000e-01 1.500000000000001e-01 1.050000000000000e+00
-2.500000000000000e-01 2.500000000000001e-01 1.050000000000000e+00
-2.500000000000000e-01 3.500000000000000e-01 1.050000000000000e+00
-2.500000000000000e-01 4.500000000000000e-01 1.050000000000000e+00
-1.500000000000000e-01 -4.500000000000000e-01 1.050000000000000e+00
-1.500000000000000e-01 -3.500000000000000e-01 1.050000000000000e+00
-1.500000000000000e-01 -2.500000000000000e-01 1.050000000000000e+00
-1.500000000000000e-01 2.500000000000001e-01 1.050000000000000e+00
-1.500000000000000e-01 3.500000000000000e-01 1.050000000000000e+00
-1.500000000000000e-01 4.500000000000000e-01 1.050000000000000e+00
-4.999999999999999e-02 -4.500000000000000e-01 1.050000000000000e+00
-4.999999999999999e-02 -3.500000000000000e-01 1.050000000000000e+00
-4.999999999999999e-02 -2.500000000000000e-01 1.050000000000000e+00
-4.999999999999999e-02 2.500000000000001e-01 1.050000000000000e+00
-4.999999999999999e-02 3.500000000000000e-01 1.050000000000000e+00
-4.999999999999999e-02 4.500000000000000e-01 1.050000000000000e+00
4.999999999999999e-02 -4.500000000000000e-01 1.050000000000000e+00
4.999999999999999e-02 -3.500000000000000e-01 1.050000000000000e+00
4.999999999999999e-02 -2.500000000000000e-01 1.050000000000000e+00
4.999999999999999e-02 2.500000000000001e-01 1.050000000000000e+00
4.999999999999999e-02 3.500000000000000e-01 1.050000000000000e+00
4.999999999999999e-02 4.500000000000000e-01 1.050000000000000e+00
1.500000000000001e-01 -4.500000000000000e-01 1.050000000000000e+00
1.500000000000001e-01 -3.500000000000000e-01 1.050000000000000e+00
1.500000000000001e-01 -2.500000000000000e-01 1.050000000000000e+00
1.500000000000001e-01 2.500000000000001e-01 1.050000000000000e+00
1.500000000000001e-01 3.500000000000000e-01 1.050000000000000e+00
1.500000000000001e-01 4.500000000000000e-01 1.050000000000000e+00
2.500000000000001e-01 -4.500000000000000e-01 1.050000000000000e+00
2.500000000000001e-01 -3.500000000000000e-01 1.050000000000000e+00
2.500000000000001e-01 -2.500000000000000e-01 1.050000000000000e+00
2.500000000000001e-01 -1.500000000000000e-01 1.050000000000000e+00
2.500000000000001e-01 -4.999999999999999e-02 1.050000000000000e+00
2.500000000000001e-01 4.999999999999999e-02 1.050000000000000e+00
2.500000000000001e-01 1.500000000000001e-01 1.050000000000000e+00
2.500000000000001e-01 2.500000000000001e-01 1.050000000000000e+00
2.500000000000001e-01 3.500000000000000e-01 1.050000000000000e+00
2.500000000000001e-01 4.500000000000000e-01 1.050000000000000e+00
3.500000000000000e-01 -4.500000000000000e-01 1.050000000000000e+00
3.500000000000000e-01 -3.500000000000000e-01 1.050000000000000e+00
3.500000000000000e-01 -2.500000000000000e-01 1.050000000000000e+00
3.500000000000000e-01 -1.500000000000000e-01 1.050000000000000e+00
3.500000000000000e-01 -4.999999999999999e-02 1.050000000000000e+00
3.500000000000000e-01 4.999999999999999e-02 1.050000000000000e+00
3.500000000000000e-01 1.500000000000001e-01 1.050000000000000e+00
3.500000000000000e-01 2.500000000000001e-01 1.050000000000000e+00
3.500000000000000e-01 3.500000000000000e-01 1.050000000000000e+00
3.500000000000000e-01 4.500000000000000e-01 1.050000000000000e+00
4.500000000000000e-01 -4.500000000000000e-01 1.050000000000000e+00
4.500000000000000e-01 -3.500000000000000e-01 1.050000000000000e+00
4.500000000000000e-01 -2.500000000000000e-01 1.050000000000000e+00
4.500000000000000e-01 -1.500000000000000e-01 1.050000000000000e+00
4.500000000000000e-01 -4.999999999999999e-02 1.050000000000000e+00
4.500000000000000e-01 4.999999999999999e-02 1.050000000000000e+00
4.500000000000000e-01 1.500000000000001e-01 1.050000000000000e+00
4.500000000000000e-01 2.500000000000001e-01 1.050000000000000e+00
4.500000000000000e-01 3.500000000000000e-01 1.050000000000000e+00
4.500000000000000e-01 4.500000000000000e-01 1.050000000000000e+00
-4.500000000000000e-01 -4.500000000000000e-01 1.150000000000000e+00
-4.500000000000000e-01 -4.500000000000000e-01 1.250000000000000e+00
-4.500000000000000e-01 -4.500000000000000e-01 1.350000000000000e+00
-4.500000000000000e-01 -4.500000000000000e-01 1.450000000000000e+00
-4.500000000000000e-01 -3.500000000000000e-01 1.150000000000000e+00
-4.500000000000000e-01 -3.500000000000000e-01 1.250000000000000e+00
-4.500000000000000e-01 -3.500000000000000e-01 1.350000000000000e+00
-4.500000000000000e-01 -3.500000000000000e-01 1.450000000000000e+00
-4.500000000000000e-01 -2.500000000000000e-01 1.150000000000000e+00
-4.500000000000000e-01 -2.500000000000000e-01 1.250000000000000e+00
-4.500000000000000e-01 -2.500000000000000e-01 1.350000000000000e+00
-4.500000000000000e-01 -2.500000000000000e-01 1.450000000000000e+00
-4.500000000000000e-01 -1.500000000000000e-01 1.150000000000000e+00
-4.500000000000000e-01 -1.500000000000000e-01 1.250000000000000e+00
-4.500000000000000e-01 -1.500000000000000e-01 1.350000000000000e+00
-4.500000000000000e-01 -1.500000000000000e-01 1.450000000000000e+00
-4.500000000000000e-01 -4.999999999999999e-02 1.150000000000000e+00
-4.500000000000000e-01 -4.999999999999999e-02 1.250000000000000e+00
-4.500000000000000e-01 -4.999999999999999e-02 1.350000000000000e+00
-4.500000000000000e-01 -4.999999999999999e-02 1.450000000000000e+00
-4.500000000000000e-01 4.999999999999999e-02 1.150000000000000e+00
-4.500000000000000e-01 4.999999999999999e-02 1.250000000000000e+00
-4.500000000000000e-01 4.999999999999999e-02 1.350000000000000e+00
-4.500000000000000e-01 4.999999999999999e-02 1.450000000000000e+00
-4.500000000000000e-01 1.500000000000001e-01 1.150000000000000e+00
-4.500000000000000e-01 1.500000000000001e-01 1.250000000000000e+00
-4.500000000000000e-01 1.500000000000001e-01 1.350000000000000e+00
-4.500000000000000e-01 1.500000000000001e-01 1.450000000000000e+00
-4.500000000000000e-01 2.500000000000001e-01 1.150000000000000e+00
-4.500000000000000e-01 2.500000000000001e-01 1.250000000000000e+00
-4.500000000000000e-01 2.500000000000001e-01 1.350000000000000e+00
-4.500000000000000e-01 2.500000000000001e-01 1.450000000000000e+00
-4.500000000000000e-01 3.500000000000000e-01 1.150000000000000e+00
-4.500000000000000e-01 3.500000000000000e-01 1.250000000000000e+00
-4.500000000000000e-01 3.500000000000000e-01 1.350000000000000e+00
-4.500000000000000e-01 3.500000000000000e-01 1.450000000000000e+00
-4.500000000000000e-01 4.500000000000000e-01 1.150000000000000e+00
-4.500000000000000e-01 4.500000000000000e-01 1.250000000000000e+00
-4.500000000000000e-01 4.500000000000000e-01 1.350000000000000e+00
-4.500000000000000e-01 4.500000000000000e-01 1.450000000000000e+00
-3.500000000000000e-01 -4.500000000000000e-01 1.150000000000000e+00
-3.500000000000000e-01 -4.500000000000000e-01 1.250000000000000e+00
-3.500000000000000e-01 -4.500000000000000e-01 1.350000000000000e+00
-3.500000000000000e-01 -4.500000000000000e-01 1.450000000000000e+00
-3.500000000000000e-01 -3.500000000000000e-01 1.150000000000000e+00
-3.500000000000000e-01 -3.500000000000000e-01 1.250000000000000e+00
-3.500000000000000e-01 -3.500000000000000e-01 1.350000000000000e+00
-3.500000000000000e-01 -3.500000000000000e-01 1.450000000000000e+00
-3.500000000000000e-01 -2.500000000000000e-01 1.150000000000000e+00
-3.500000000000000e-01 -2.500000000000000e-01 1.250000000000000e+00
-3.500000000000000e-01 -2.500000000000000e-01 1.350000000000000e+00
-3.500000000000000e-01 -2.500000000000000e-01 1.450000000000000e+00
-3.500000000000000e-01 -1.500000000000000e-01 1.150000000000000e+00
-3.500000000000000e-01 -1.500000000000000e-01 1.250000000000000e+00
-3.500000000000000e-01 -1.500000000000000e-01 1.350000000000000e+00
-3.500000000000000e-01 -1.500000000000000e-01 1.450000000000000e+00
-3.500000000000000e-01 -4.999999999999999e-02 1.150000000000000e+00
[...]
  <PointData>
        <DataArray type="Float64" Name="acceleration" NumberOfComponents="3" format="ascii">
-1.490418032046303e-13 5.599726682781886e-14 -1.154631945610163e-13
-3.821811302758688e-14 1.021448550742043e-14 -1.616484723854228e-13
2.143988112046635e-14 -5.940065198615022e-14 -1.709743457922741e-13
-6.792743451056182e-15 -2.265553603010215e-14 -1.780797731498751e-13
-2.902626056178192e-14 1.558283124931947e-15 -1.749711486809247e-13
-1.233856766758024e-13 1.517947483746333e-13 -1.105782132526656e-13
-1.927676226108621e-14 -2.047593865295294e-13 -1.483257960899209e-13
3.797483161260828e-14 -3.213279184291311e-13 -1.798561299892754e-13
2.049717410775379e-14 2.075002496215728e-13 -1.878497357665765e-13
-4.941966974536527e-14 1.798975465122643e-13 -1.647570968543732e-13
-5.855428988899014e-14 3.673323038973220e-14 1.287858708565182e-14
2.238138599217719e-05 2.238138618856547e-05 -1.167954621905665e-13
1.388840620866842e-02 6.955393797348895e-03 1.369599202657668e-03
6.156406346717254e-02 6.955393797336046e-03 6.955393797151377e-03
7.543008828975847e-02 2.238138594881170e-05 8.324993000067504e-03
7.543008828973878e-02 -2.238138590498865e-05 8.324993000200731e-03
6.156406346710598e-02 -6.955393797473341e-03 6.955393797240195e-03
1.388840620866634e-02 -6.955393797679250e-03 1.369599202684757e-03
2.238138604540438e-05 -2.238138585595168e-05 -1.727507026316744e-13
-1.967176421757699e-14 5.482577960418469e-14 -1.123545700920658e-13
1.506221362912452e-13 4.826602442373207e-14 -1.132427485117660e-13
6.955393797471626e-03 1.388840620873078e-02 1.369599202676319e-03
2.211306157941710e-01 2.211306157941628e-01 5.933340179471402e-02
7.847187738037131e-01 2.211306157941393e-01 2.211306157939603e-01
9.988939958005477e-01 1.388840620861313e-02 2.790944183860593e-01
9.988939958005846e-01 -1.388840620855221e-02 2.790944183861082e-01
7.847187738036875e-01 -2.211306157943339e-01 2.211306157940185e-01
2.211306157941588e-01 -2.211306157944437e-01 5.933340179477176e-02
6.955393797357583e-03 -1.388840620848863e-02 1.369599202661220e-03
3.367423527522728e-14 1.291110298643101e-13 -1.803002191991254e-13
3.561820977049379e-15 1.146489451769525e-13 -1.847411112976260e-13
6.955393797361860e-03 6.156406346712470e-02 6.955393797129616e-03
2.211306157941243e-01 7.847187738036473e-01 2.211306157939474e-01
2.211306157941117e-01 -7.847187738039541e-01 2.211306157940429e-01
6.955393797339020e-03 -6.156406346696435e-02 6.955393797150933e-03
-3.138004992572080e-14 1.867360500712630e-13 -2.153832667772804e-13
5.873470113049173e-14 8.777025872590272e-14 -1.829647544582258e-13
2.238138604128848e-05 7.543008828971633e-02 8.324993000001335e-03
1.388840620866824e-02 9.988939958004501e-01 2.790944183860384e-01
1.388840620867523e-02 -9.988939958007055e-01 2.790944183861037e-01
2.238138611153554e-05 -7.543008828956298e-02 8.324992999998226e-03
8.435516418410852e-14 1.876393734400600e-13 -2.122746423083299e-13
1.929658689781011e-13 4.410405011036692e-14 -1.705302565824240e-13
-2.238138589148167e-05 7.543008828968614e-02 8.324993000015546e-03
-1.388840620854721e-02 9.988939958004159e-01 2.790944183860500e-01
-1.388840620856155e-02 -9.988939958006430e-01 2.790944183860833e-01
-2.238138590796588e-05 -7.543008828952559e-02 8.324992999996450e-03
1.670388477602140e-13 2.059801371893759e-13 -2.002842336423782e-13
-2.554402002419298e-13 5.858492537662643e-14 -1.580957587066223e-13
-6.955393797582158e-03 6.156406346705193e-02 6.955393797162035e-03
-2.211306157943464e-01 7.847187738035858e-01 2.211306157939807e-01
-2.211306157943642e-01 -7.847187738038750e-01 2.211306157939661e-01
-6.955393797640666e-03 -6.156406346691116e-02 6.955393797116738e-03
-2.884800756022994e-13 2.498532454607398e-13 -1.851852005074761e-13
-3.561135761276368e-13 8.438065648768908e-14 -1.785238623597252e-13
-6.955393797678738e-03 1.388840620867080e-02 1.369599202646121e-03
-2.211306157944203e-01 2.211306157940691e-01 5.933340179473756e-02
-7.847187738039318e-01 2.211306157941066e-01 2.211306157940163e-01
-9.988939958006831e-01 1.388840620876978e-02 2.790944183860451e-01
-9.988939958005983e-01 -1.388840620852987e-02 2.790944183860398e-01
-7.847187738038335e-01 -2.211306157944378e-01 2.211306157939785e-01
-2.211306157944287e-01 -2.211306157944770e-01 5.933340179466340e-02
-6.955393797675548e-03 -1.388840620848131e-02 1.369599202567517e-03
-3.257637283299482e-13 2.317071637640208e-13 -2.153832667772804e-13
1.963273293936751e-13 6.477764424037483e-14 -1.794120407794253e-13
-2.238138588864963e-05 2.238138604585509e-05 -1.958433415438776e-13
-1.388840620851339e-02 6.955393797326109e-03 1.369599202682537e-03
-6.156406346689495e-02 6.955393797339313e-03 6.955393797186460e-03
-7.543008828956470e-02 2.238138615266787e-05 8.324992999991121e-03
-7.543008828958755e-02 -2.238138589089402e-05 8.324992999992009e-03
-6.156406346697964e-02 -6.955393797711823e-03 6.955393797163811e-03
-1.388840620850500e-02 -6.955393797704628e-03 1.369599202622584e-03
-2.238138584437258e-05 -2.238138582755134e-05 -2.309263891220326e-13
2.211004816732309e-13 2.053002543358010e-13 -1.869615573468764e-13
2.166500485956124e-13 4.123078560427235e-14 -1.834088436680759e-13
2.115017349083557e-13 -4.033448922080574e-14 -1.820765760385257e-13
1.784856984432537e-13 -4.623119378641127e-15 -1.612043831755727e-13
1.636156488071805e-13 -1.672532284110323e-14 -1.758593271006248e-13
1.449851523560586e-13 4.477641808763380e-14 -2.087219286295294e-13
1.155161036270336e-13 1.498386850251436e-13 -2.007283228522283e-13
1.657133292891876e-13 -3.096679881378801e-13 -1.780797731498751e-13
2.144313372698381e-13 -3.158989047994179e-13 -1.962874307537277e-13
1.944616207427349e-13 2.295910857263994e-13 -1.896260926059767e-13
2.083385547413386e-13 2.213542188629104e-13 -1.785238623597252e-13
-1.970212187840659e-14 6.500677004073890e-14 4.119760088627800e-13
3.713132232241456e-14 3.180225180421381e-14 2.361418352525568e-13
1.540434446667405e-14 -2.067790383364354e-14 -3.546468674286984e-13
-7.827072323607354e-15 -5.573319583618286e-14 -1.731809140537166e-13
2.080815717214052e-14 -3.462377953789009e-14 3.647637747405952e-13
6.167982791183135e-14 -4.392319841173276e-14 1.856028351843175e-13
2.331511719799728e-14 -6.922847711754443e-14 -3.983107246807727e-13
-1.696039142462524e-14 -5.641320743876577e-14 -1.746879550734715e-13
2.173738619659638e-14 -6.382788313727752e-14 3.743394483279872e-13
6.707178215603626e-14 -4.297777411732540e-14 2.055044502624614e-13
5.573146111270688e-14 -2.091903039680432e-14 -3.788002897464615e-13
1.731427501372451e-14 1.216041156659742e-14 -1.378996743184313e-13
-1.213265599098179e-14 -4.717955220294792e-14 3.730349362740526e-13
4.802321734720394e-14 -1.559776613424546e-14 2.294449352735484e-13
7.572284813073260e-14 2.871140825089213e-14 -3.695607188325400e-13
5.476001596615987e-14 4.381911500317415e-15 -1.233726662497325e-13
2.123865319725304e-14 7.087322536573210e-14 4.085343174864420e-13
3.903734974164408e-14 1.347888814451359e-13 3.130013609409232e-13
4.538036613155327e-14 1.844843722231815e-13 -3.565550632522729e-13
2.829680934013368e-14 1.755366685340931e-13 -1.578459585260816e-13
-3.460339653704736e-15 2.009227609593364e-13 4.561073740916299e-13
3.663996189784413e-14 1.426818732608304e-13 3.086884046987759e-13
3.799608197518900e-14 1.309629488188691e-13 -3.332039505421491e-13
2.435898704966633e-14 1.640562685700786e-13 -1.435422961049149e-13
2.414534501157806e-14 -3.596103449743371e-13 3.473610288295959e-13
9.323705002506344e-15 -4.875553086258755e-13 2.336971761940365e-13
4.984294227350361e-15 -5.266256181135631e-13 -3.209017253313906e-13
1.370605018369275e-14 -5.041314588005719e-13 -1.018052829537819e-13
4.944525691663593e-14 -4.077295277663331e-13 2.803035581422364e-13
8.993673861201756e-15 -3.782286983611272e-13 1.697509320608415e-13
2.968545548265311e-15 -4.160829666921551e-13 -3.327828464183558e-13
9.405670686746248e-15 -4.285877208687339e-13 -1.001572956516039e-13
3.741562046083100e-14 2.896515492734064e-13 3.540501225529624e-13
3.743793469679346e-14 3.665011003017860e-13 2.148229510945399e-13
2.320366121466577e-14 3.859551567231279e-13 -3.634453848988528e-13
1.981748098955904e-14 3.735900477863652e-13 -1.169619956442602e-13
7.215582298325529e-15 2.860102969346953e-13 3.866351683257108e-13
2.778159646776857e-14 2.935394982639394e-13 2.481383154506744e-13
1.654232306691483e-14 3.255312686079037e-13 -3.456124275658112e-13
1.187938636348917e-14 3.142486271201506e-13 -1.351696532481128e-13
-7.315892683323888e-14 5.092294316257073e-14 5.392353230604385e-13
-8.026912468039882e-14 6.113512474037464e-14 2.233573569154768e-13
-9.046149246350055e-14 2.112589617131455e-14 -3.679083947216721e-13
-7.211592434330782e-14 -1.173540431498310e-14 -1.716586942035470e-13
2.238138597159913e-05 2.238138605399157e-05 4.290179322907761e-13
2.238138599569289e-05 2.238138600583409e-05 2.042203212093696e-13
2.238138603861140e-05 2.238138599650056e-05 -4.021340552218255e-13
2.238138608850248e-05 2.238138601446448e-05 -1.585992621955246e-13
1.662760461435132e-02 8.324993000173666e-03 3.573807916268379e-13
1.662760461433850e-02 8.324993000160085e-03 2.153689553086036e-13
1.662760461436923e-02 8.324993000186359e-03 -3.717833332861353e-13
1.388840620872051e-02 6.955393797362026e-03 -1.369599203003832e-03
7.543008828977059e-02 8.324993000188796e-03 2.238138637866705e-05
7.545246967572934e-02 8.324993000188236e-03 2.179315755634903e-13
7.543008828968907e-02 8.324993000207663e-03 -2.238138639628273e-05
6.156406346714007e-02 6.955393797336680e-03 -6.955393797504570e-03
9.203531151807130e-02 2.238138608748282e-05 2.238138645027643e-05
9.205769290402703e-02 2.238138616469849e-05 2.505348359327364e-13
9.203531151796700e-02 2.238138619448974e-05 -2.238138638994925e-05
7.543008828972268e-02 2.238138620442878e-05 -8.324993000374675e-03
9.203531151804240e-02 -2.238138585531816e-05 2.238138656684985e-05
9.205769290401991e-02 -2.238138587537389e-05 2.627845281601062e-13
9.203531151796830e-02 -2.238138586275356e-05 -2.238138635857591e-05
7.543008828971649e-02 -2.238138583635953e-05 -8.324993000346689e-03
7.543008828972621e-02 -8.324993000529799e-03 2.238138642104981e-05
7.545246967576090e-02 -8.324993000674824e-03 2.141767665997385e-13
7.543008828970671e-02 -8.324993000727341e-03 -2.238138635745745e-05
6.156406346712906e-02 -6.955393797857493e-03 -6.955393797455881e-03
1.662760461439458e-02 -8.324993000614416e-03 2.859379399922091e-13
1.662760461438595e-02 -8.324993000590449e-03 1.304113067535084e-13
1.662760461433871e-02 -8.324993000641783e-03 -3.295746921899712e-13
1.388840620867653e-02 -6.955393797788995e-03 -1.369599202951289e-03
2.238138603866789e-05 -2.238138577999995e-05 3.600730824615539e-13
2.238138600922658e-05 -2.238138570936706e-05 1.782653885618046e-13
2.238138598415953e-05 -2.238138567443421e-05 -3.606000047173819e-13
2.238138603831586e-05 -2.238138569567677e-05 -1.064500050607098e-13
-4.617749867381893e-14 2.243245601210239e-13 4.174438572590589e-13
-9.406341536840473e-14 2.694793173330101e-13 2.154732420050695e-13
-1.043366781861010e-13 2.979691146598462e-13 -3.421637972955693e-13
-8.644474025487625e-14 2.728546555363920e-13 -1.368453961259064e-13
9.452941901466616e-15 7.355546700156188e-14 4.020672683680004e-13
-7.755471612136411e-14 9.506458120700501e-14 2.076082361579523e-13
-7.052691763931307e-14 7.993605777301127e-14 -3.532729664357248e-13
-6.322720125240266e-14 7.460698725481052e-14 -1.530997550958091e-13
8.324993000253224e-03 1.662760461437931e-02 3.569644579926035e-13
8.324993000184579e-03 1.662760461438914e-02 2.230366499128555e-13
8.324993000194975e-03 1.662760461440668e-02 -3.475583536249882e-13
6.955393797355744e-03 1.388840620874376e-02 -1.369599202978365e-03
2.790944183862362e-01 2.790944183862317e-01 2.739198406045917e-03
2.804640175890491e-01 2.804640175890032e-01 2.161187895310945e-13
2.790944183862264e-01 2.790944183861580e-01 -2.739198406006412e-03
2.211306157942116e-01 2.211306157941549e-01 -5.933340179500760e-02
9.988939958005202e-01 2.790944183861989e-01 1.388840620891121e-02
1.005849389597719e+00 2.804640175889797e-01 1.415523243324807e-13
9.988939958004339e-01 2.790944183861578e-01 -1.388840620888888e-02
7.847187738037337e-01 2.211306157941049e-01 -2.211306157942441e-01
1.269663421186512e+00 1.662760461437653e-02 1.662760461464666e-02
1.277988414186497e+00 1.662760461443507e-02 1.680710421097381e-13
1.269663421186379e+00 1.662760461446406e-02 -1.662760461457091e-02
9.988939958005022e-01 1.388840620876526e-02 -2.790944183863177e-01
1.269663421186459e+00 -1.662760461421458e-02 1.662760461469959e-02
1.277988414186404e+00 -1.662760461421500e-02 1.850838547094030e-13
1.269663421186268e+00 -1.662760461421621e-02 -1.662760461456474e-02
9.988939958003982e-01 -1.388840620850285e-02 -2.790944183862777e-01
9.988939958004287e-01 -2.790944183864970e-01 1.388840620895893e-02
1.005849389597592e+00 -2.804640175894101e-01 1.462762914538219e-13
9.988939958002571e-01 -2.790944183866744e-01 -1.388840620890324e-02
7.847187738035882e-01 -2.211306157946259e-01 -2.211306157941776e-01
2.790944183862445e-01 -2.790944183866070e-01 2.739198406002508e-03
2.804640175890297e-01 -2.804640175894120e-01 5.030698080332741e-14
2.790944183861154e-01 -2.790944183866181e-01 -2.739198406025475e-03
2.211306157941055e-01 -2.211306157945572e-01 -5.933340179495726e-02
8.324993000186751e-03 -1.662760461418041e-02 3.327893516313907e-13
8.324993000168325e-03 -1.662760461411970e-02 1.416011405352968e-13
8.324993000162581e-03 -1.662760461402538e-02 -3.179975813921709e-13
6.955393797349597e-03 -1.388840620836457e-02 -1.369599202926723e-03
-5.519635990674024e-14 2.405038448667456e-13 3.254618796688646e-13
-8.409582302444998e-14 2.547853421297486e-13 2.007267101014967e-13
-6.286302451892836e-14 2.669279727807172e-13 -3.176383784361629e-13
-5.385275558822400e-14 2.085146291741502e-13 -1.389027646158877e-13
-5.238864897449957e-16 1.397696926730072e-13 3.206324095117452e-13
2.865849918487484e-14 1.095733746792060e-13 2.091829313932703e-13
3.614296362197678e-14 6.340284200434532e-14 -3.540037186999800e-13
2.967764922701122e-14 4.744815651491763e-14 -1.547794011014236e-13
8.324993000223005e-03 7.543008828973123e-02 2.238138633858799e-05
8.324993000233727e-03 7.545246967580434e-02 1.894647633227109e-13
8.324993000204915e-03 7.543008828977256e-02 -2.238138641344608e-05
6.955393797329840e-03 6.156406346720519e-02 -6.955393797484929e-03
2.790944183861948e-01 9.988939958004555e-01 1.388840620895782e-02
2.804640175890284e-01 1.005849389597675e+00 1.955636173833764e-13
2.790944183861801e-01 9.988939958003986e-01 -1.388840620893890e-02
2.211306157941136e-01 7.847187738036999e-01 -2.211306157942234e-01
2.790944183861661e-01 -9.988939958008187e-01 1.388840620893264e-02
2.804640175890244e-01 -1.005849389597992e+00 -7.554720737878995e-15
2.790944183861611e-01 -9.988939958007261e-01 -1.388840620900108e-02
2.211306157940822e-01 -7.847187738040058e-01 -2.211306157941123e-01
8.324993000204266e-03 -7.543008828959159e-02 2.238138639112930e-05
8.324993000260001e-03 -7.545246967555126e-02 1.433844362686010e-13
8.324993000238107e-03 -7.543008828936389e-02 -2.238138638083870e-05
6.955393797358487e-03 -6.156406346678552e-02 -6.955393797403383e-03
-2.208562515813514e-14 2.561845592434497e-13 3.102240686558844e-13
3.782019727775754e-14 2.438288286554791e-13 2.312592256364585e-13
3.603494320427933e-14 2.663771980770946e-13 -3.180620101062709e-13
3.296799953259738e-14 1.987477023235318e-13 -1.323875701447243e-13
8.983005311824499e-14 1.079682946780042e-13 3.612110610617947e-13
1.178597150430782e-13 9.049531957128210e-14 2.422810216340388e-13
1.300895155487147e-13 6.291885415454779e-14 -3.481585679476762e-13
1.443289932012704e-13 3.791064684399714e-14 -1.592627939250857e-13
2.238138607328567e-05 9.203531151804088e-02 2.238138640031639e-05
2.238138614191057e-05 9.205769290410681e-02 2.281767948143689e-13
2.238138619387044e-05 9.203531151806264e-02 -2.238138641151013e-05
2.238138621516678e-05 7.543008828979762e-02 -8.324993000341258e-03
1.662760461441562e-02 1.269663421186452e+00 1.662760461469870e-02
1.662760461443898e-02 1.277988414186457e+00 2.016247412084393e-13
1.662760461445779e-02 1.269663421186347e+00 -1.662760461462752e-02
1.388840620878505e-02 9.988939958004582e-01 -2.790944183862708e-01
1.662760461438360e-02 -1.269663421186754e+00 1.662760461466728e-02
1.662760461444537e-02 -1.277988414186714e+00 5.872559383224285e-14
1.662760461451123e-02 -1.269663421186609e+00 -1.662760461472495e-02
1.388840620879736e-02 -9.988939958007135e-01 -2.790944183861557e-01
2.238138613226747e-05 -9.203531151787256e-02 2.238138643770315e-05
2.238138617369921e-05 -9.205769290385329e-02 1.871838187922359e-13
2.238138620311392e-05 -9.203531151770226e-02 -2.238138641261016e-05
2.238138619251769e-05 -7.543008828939225e-02 -8.324993000256501e-03
1.225682627766476e-13 2.527589072830010e-13 3.657907310383735e-13
1.390236734869106e-13 2.309966454228096e-13 2.487397562770700e-13
1.236485414925215e-13 2.702057327885754e-13 -3.338257675931239e-13
1.367024982795728e-13 2.193197880251407e-13 -1.207755412607064e-13
2.498621969049264e-13 4.895108434268061e-14 3.511635426889370e-13
1.966283039167571e-13 6.399264798617743e-14 2.321988087916615e-13
2.062239268241228e-13 9.904577158437178e-14 -3.314709617896483e-13
2.162159340457492e-13 8.254508188088039e-14 -1.442734820500391e-13
-2.238138585448457e-05 9.203531151801538e-02 2.238138640694998e-05
-2.238138587756832e-05 9.205769290409097e-02 2.807666717120818e-13
-2.238138581490468e-05 9.203531151806085e-02 -2.238138635939297e-05
-2.238138580280911e-05 7.543008828979157e-02 -8.324993000338758e-03
-1.662760461422547e-02 1.269663421186409e+00 1.662760461470275e-02
-1.662760461424564e-02 1.277988414186387e+00 2.116735606239040e-13
-1.662760461421248e-02 1.269663421186220e+00 -1.662760461459813e-02
-1.388840620851268e-02 9.988939958003449e-01 -2.790944183862555e-01
-1.662760461427394e-02 -1.269663421186677e+00 1.662760461465571e-02
-1.662760461429334e-02 -1.277988414186628e+00 1.200988093696953e-13
-1.662760461422193e-02 -1.269663421186509e+00 -1.662760461466821e-02
-1.388840620851192e-02 -9.988939958006426e-01 -2.790944183861917e-01
-2.238138587637114e-05 -9.203531151781069e-02 2.238138643295695e-05
-2.238138587864103e-05 -9.205769290381022e-02 2.259592252890075e-13
-2.238138584634872e-05 -9.203531151772013e-02 -2.238138639494331e-05
-2.238138589972898e-05 -7.543008828941475e-02 -8.324993000306063e-03
2.285813953482180e-13 2.806336841512311e-13 3.628763955987324e-13
2.086674474703620e-13 2.296964701775650e-13 2.321972705798293e-13
2.088891668146353e-13 2.411690638859376e-13 -3.323688099374743e-13
1.775012970807455e-13 2.206472851651320e-13 -1.297251287510695e-13
-3.638669227035152e-13 5.172924398945747e-14 2.937927678914320e-13
-4.520203655822286e-13 4.648711970922648e-14 1.895220091974181e-13
-4.549555177035813e-13 8.409939411535561e-14 -3.062550213428494e-13
-4.423128530106624e-13 9.336975637097567e-14 -1.431632590254139e-13
-8.324993000534986e-03 7.543008828966417e-02 2.238138635457521e-05
-8.324993000621117e-03 7.545246967577575e-02 2.553339484290262e-13
-8.324993000676123e-03 7.543008828974034e-02 -2.238138634602389e-05
-6.955393797826711e-03 6.156406346714588e-02 -6.955393797472138e-03
-2.790944183864948e-01 9.988939958003668e-01 1.388840620896922e-02
-2.804640175893577e-01 1.005849389597543e+00 2.077271358668243e-13
-2.790944183865883e-01 9.988939958001918e-01 -1.388840620892372e-02
-2.211306157945786e-01 7.847187738034990e-01 -2.211306157941982e-01
-2.790944183865947e-01 -9.988939958007124e-01 1.388840620886145e-02
-2.804640175895193e-01 -1.005849389597832e+00 1.235938434929196e-13
-2.790944183866986e-01 -9.988939958005612e-01 -1.388840620893891e-02
-2.211306157946549e-01 -7.847187738039380e-01 -2.211306157941568e-01
-8.324993000649580e-03 -7.543008828942439e-02 2.238138639493181e-05
-8.324993000706988e-03 -7.545246967538231e-02 2.252809822912184e-13
-8.324993000754267e-03 -7.543008828932687e-02 -2.238138643617486e-05