<?xml version="1.0" ?> 
<!-- 
# vtk DataFile Version 3.0
-->
<VTKFile type="UnstructuredGrid" version="0.1" compressor="vtkZLibDataCompressor" byte_order="LittleEndian">
  <UnstructuredGrid>
    <FieldData>
      <DataArray type="Float64" Name="TIME" NumberOfTuples="1" format="ascii">
0.000000000000000e+00 
      </DataArray>
    </FieldData>

    <Piece NumberOfPoints="300" NumberOfCells="0" >
      <Points>
        <DataArray type="Float64" NumberOfComponents="3" format="ascii">
-4.500000000000000e-01 -4.500000000000000e-01 2.000000000000000e+00
-4.500000000000001e-01 -3.500000000000000e-01 2.000000000000000e+00
-4.500000000000000e-01 -2.500000000000000e-01 2.000000000000000e+00
-3.500000000000000e-01 -4.500000000000001e-01 2.000000000000000e+00
-3.500000000000000e-01 -3.500000000000000e-01 2.000000000000000e+00
-3.500000000000000e-01 -2.500000000000000e-01 2.000000000000000e+00
-2.500000000000000e-01 -4.500000000000000e-01 2.000000000000000e+00
-2.500000000000000e-01 -3.500000000000000e-01 2.000000000000000e+00
-2.500000000000000e-01 -2.500000000000000e-01 2.000000000000000e+00
-1.500000000000000e-01 -4.500000000000000e-01 2.000000000000000e+00
-1.500000000000000e-01 -3.500000000000000e-01 2.000000000000000e+00
-1.500000000000000e-01 -2.500000000000000e-01 2.000000000000000e+00
-4.999999999999999e-02 -4.500000000000000e-01 2.000000000000000e+00
-4.999999999999999e-02 -3.500000000000000e-01 2.000000000000000e+00
-4.999999999999999e-02 -2.500000000000000e-01 2.000000000000000e+00
-4.500000000000000e-01 4.500000000000000e-01 2.000000000000000e+00
-4.500000000000000e-01 4.500000000000000e-01 2.000000000000000e+00
-3.500000000000000e-01 2.500000000000001e-01 2.000000000000000e+00
-3.500000000000000e-01 2.500000000000001e-01 2.000000000000000e+00
-3.500000000000000e-01 3.500000000000000e-01 2.000000000000000e+00
-3.500000000000000e-01 3.500000000000000e-01 2.000000000000000e+00
-4.500000000000000e-01 -1.500000000000000e-01 2.000000000000000e+00
-4.500000000000000e-01 -4.999999999999999e-02 2.000000000000000e+00
-3.500000000000000e-01 4.500000000000001e-01 2.000000000000000e+00
-3.500000000000000e-01 4.500000000000001e-01 2.000000000000000e+00
-3.500000000000000e-01 -1.500000000000000e-01 2.000000000000000e+00
-3.500000000000000e-01 -4.999999999999999e-02 2.000000000000000e+00
-2.500000000000000e-01 2.500000000000000e-01 2.000000000000000e+00
-2.500000000000000e-01 2.500000000000000e-01 2.000000000000000e+00
-2.500000000000000e-01 -1.500000000000000e-01 2.000000000000000e+00
-2.500000000000000e-01 -4.999999999999999e-02 2.000000000000000e+00
-2.500000000000000e-01 3.500000000000000e-01 2.000000000000000e+00
-2.500000000000000e-01 3.500000000000000e-01 2.000000000000000e+00
-1.500000000000000e-01 -1.500000000000000e-01 2.000000000000000e+00
-1.500000000000000e-01 -4.999999999999999e-02 2.000000000000000e+00
-2.500000000000000e-01 4.500000000000000e-01 2.000000000000000e+00
-2.500000000000000e-01 4.500000000000000e-01 2.000000000000000e+00
-4.999999999999999e-02 -1.500000000000000e-01 2.000000000000000e+00
-4.999999999999999e-02 -4.999999999999999e-02 2.000000000000000e+00
-1.500000000000000e-01 2.500000000000001e-01 2.000000000000000e+00
-1.500000000000000e-01 2.500000000000001e-01 2.000000000000000e+00
-1.500000000000000e-01 3.500000000000000e-01 2.000000000000000e+00
-1.500000000000000e-01 3.500000000000000e-01 2.000000000000000e+00
-1.500000000000000e-01 4.500000000000000e-01 2.000000000000000e+00
-1.500000000000000e-01 4.500000000000000e-01 2.000000000000000e+00
-4.999999999999999e-02 2.500000000000001e-01 2.000000000000000e+00
-4.999999999999999e-02 2.500000000000001e-01 2.000000000000000e+00
-4.999999999999999e-02 3.500000000000000e-01 2.000000000000000e+00
-4.500000000000000e-01 -4.500000000000000e-01 2.000000000000000e+00
-4.500000000000000e-01 -4.500000000000000e-01 2.000000000000000e+00
-4.500000000000001e-01 -3.500000000000000e-01 2.000000000000000e+00
-4.500000000000001e-01 -3.500000000000000e-01 2.000000000000000e+00
-4.500000000000000e-01 -2.500000000000000e-01 2.000000000000000e+00
-4.500000000000000e-01 -2.500000000000000e-01 2.000000000000000e+00
-3.500000000000000e-01 -4.500000000000001e-01 2.000000000000000e+00
-3.500000000000000e-01 -4.500000000000001e-01 2.000000000000000e+00
-3.500000000000000e-01 -3.500000000000000e-01 2.000000000000000e+00
-3.500000000000000e-01 -3.500000000000000e-01 2.000000000000000e+00
-3.500000000000000e-01 -2.500000000000000e-01 2.000000000000000e+00
-3.500000000000000e-01 -2.500000000000000e-01 2.000000000000000e+00
-2.500000000000000e-01 -4.500000000000000e-01 2.000000000000000e+00
-2.500000000000000e-01 -4.500000000000000e-01 2.000000000000000e+00
-2.500000000000000e-01 -3.500000000000000e-01 2.000000000000000e+00
-2.500000000000000e-01 -3.500000000000000e-01 2.000000000000000e+00
-2.500000000000000e-01 -2.500000000000000e-01 2.000000000000000e+00
-2.500000000000000e-01 -2.500000000000000e-01 2.000000000000000e+00
-1.500000000000000e-01 -4.500000000000000e-01 2.000000000000000e+00
-1.500000000000000e-01 -4.500000000000000e-01 2.000000000000000e+00
-1.500000000000000e-01 -3.500000000000000e-01 2.000000000000000e+00
-1.500000000000000e-01 -3.500000000000000e-01 2.000000000000000e+00
-1.500000000000000e-01 -2.500000000000000e-01 2.000000000000000e+00
-1.500000000000000e-01 -2.500000000000000e-01 2.000000000000000e+00
-4.999999999999999e-02 -4.500000000000000e-01 2.000000000000000e+00
-4.999999999999999e-02 -4.500000000000000e-01 2.000000000000000e+00
-4.999999999999999e-02 -3.500000000000000e-01 2.000000000000000e+00
-4.999999999999999e-02 -3.500000000000000e-01 2.000000000000000e+00
-4.999999999999999e-02 -2.500000000000000e-01 2.000000000000000e+00
-4.999999999999999e-02 -2.500000000000000e-01 2.000000000000000e+00
-4.999999999999999e-02 3.500000000000000e-01 2.000000000000000e+00
-4.999999999999999e-02 4.500000000000000e-01 2.000000000000000e+00
-4.999999999999999e-02 4.500000000000000e-01 2.000000000000000e+00
4.500000000000000e-01 4.500000000000000e-01 2.000000000000000e+00
1.500000000000001e-01 1.500000000000001e-01 2.000000000000000e+00
1.500000000000001e-01 1.500000000000001e-01 2.000000000000000e+00
2.500000000000001e-01 -1.500000000000000e-01 2.000000000000000e+00
2.500000000000001e-01 -1.500000000000000e-01 2.000000000000000e+00
2.500000000000001e-01 -4.999999999999999e-02 2.000000000000000e+00
2.500000000000001e-01 -4.999999999999999e-02 2.000000000000000e+00
4.999999999999999e-02 2.500000000000001e-01 2.000000000000000e+00
4.999999999999999e-02 2.500000000000001e-01 2.000000000000000e+00
4.999999999999999e-02 3.500000000000000e-01 2.000000000000000e+00
4.999999999999999e-02 3.500000000000000e-01 2.000000000000000e+00
3.500000000000000e-01 -1.500000000000000e-01 2.000000000000000e+00
3.500000000000000e-01 -1.500000000000000e-01 2.000000000000000e+00
3.500000000000000e-01 -4.999999999999999e-02 2.000000000000000e+00
3.500000000000000e-01 -4.999999999999999e-02 2.000000000000000e+00
-4.500000000000000e-01 -1.500000000000000e-01 2.000000000000000e+00
-4.500000000000000e-01 -1.500000000000000e-01 2.000000000000000e+00
-4.500000000000000e-01 -4.999999999999999e-02 2.000000000000000e+00
-4.500000000000000e-01 -4.999999999999999e-02 2.000000000000000e+00
2.500000000000001e-01 4.999999999999999e-02 2.000000000000000e+00
2.500000000000001e-01 4.999999999999999e-02 2.000000000000000e+00
2.500000000000001e-01 1.500000000000001e-01 2.000000000000000e+00
2.500000000000001e-01 1.500000000000001e-01 2.000000000000000e+00
-3.500000000000000e-01 -1.500000000000000e-01 2.000000000000000e+00
-3.500000000000000e-01 -1.500000000000000e-01 2.000000000000000e+00
-3.500000000000000e-01 -4.999999999999999e-02 2.000000000000000e+00
-3.500000000000000e-01 -4.999999999999999e-02 2.000000000000000e+00
4.500000000000000e-01 -1.500000000000000e-01 2.000000000000000e+00
4.500000000000000e-01 -1.500000000000000e-01 2.000000000000000e+00
4.500000000000000e-01 -4.999999999999999e-02 2.000000000000000e+00
4.500000000000000e-01 -4.999999999999999e-02 2.000000000000000e+00
-2.500000000000000e-01 -1.500000000000000e-01 2.000000000000000e+00
-2.500000000000000e-01 -1.500000000000000e-01 2.000000000000000e+00
-2.500000000000000e-01 -4.999999999999999e-02 2.000000000000000e+00
-2.500000000000000e-01 -4.999999999999999e-02 2.000000000000000e+00
4.999999999999999e-02 4.500000000000000e-01 2.000000000000000e+00
4.999999999999999e-02 -4.500000000000000e-01 2.000000000000000e+00
4.999999999999999e-02 -3.500000000000000e-01 2.000000000000000e+00
4.999999999999999e-02 -2.500000000000000e-01 2.000000000000000e+00
-1.500000000000000e-01 -1.500000000000000e-01 2.000000000000000e+00
-1.500000000000000e-01 -1.500000000000000e-01 2.000000000000000e+00
-1.500000000000000e-01 -4.999999999999999e-02 2.000000000000000e+00
-1.500000000000000e-01 -4.999999999999999e-02 2.000000000000000e+00
1.500000000000001e-01 -4.500000000000000e-01 2.000000000000000e+00
1.500000000000001e-01 -3.500000000000000e-01 2.000000000000000e+00
1.500000000000001e-01 -2.500000000000000e-01 2.000000000000000e+00
2.500000000000001e-01 -4.500000000000000e-01 2.000000000000000e+00
-4.999999999999999e-02 -1.500000000000000e-01 2.000000000000000e+00
-4.999999999999999e-02 -1.500000000000000e-01 2.000000000000000e+00
-4.999999999999999e-02 -4.999999999999999e-02 2.000000000000000e+00
-4.999999999999999e-02 -4.999999999999999e-02 2.000000000000000e+00
2.500000000000001e-01 -3.500000000000000e-01 2.000000000000000e+00
2.500000000000000e-01 -2.500000000000000e-01 2.000000000000000e+00
3.500000000000000e-01 -4.500000000000001e-01 2.000000000000000e+00
3.500000000000000e-01 -3.500000000000000e-01 2.000000000000000e+00
3.500000000000000e-01 -2.500000000000000e-01 2.000000000000000e+00
4.500000000000000e-01 -4.500000000000000e-01 2.000000000000000e+00
4.500000000000001e-01 -3.500000000000000e-01 2.000000000000000e+00
4.500000000000000e-01 -2.500000000000000e-01 2.000000000000000e+00
4.999999999999999e-02 4.500000000000000e-01 2.000000000000000e+00
[...]
  <PointData>
        <DataArray type="Float64" Name="contact force" NumberOfComponents="3" format="ascii">
-0.000000000000000e+00 -0.000000000000000e+00 -0.000000000000000e+00
-0.000000000000000e+00 -0.000000000000000e+00 -0.000000000000000e+00
-0.000000000000000e+00 -0.000000000000000e+00 -0.000000000000000e+00
-0.000000000000000e+00 -0.000000000000000e+00 -0.000000000000000e+00
-0.000000000000000e+00 -0.000000000000000e+00 -0.000000000000000e+00
-0.000000000000000e+00 -0.000000000000000e+00 -0.000000000000000e+00
-0.000000000000000e+00 -0.000000000000000e+00 -0.000000000000000e+00
-0.000000000000000e+00 -0.000000000000000e+00 -0.000000000000000e+00
-0.000000000000000e+00 -0.000000000000000e+00 -0.000000000000000e+00
-0.000000000000000e+00 -0.000000000000000e+00 -0.000000000000000e+00
-0.000000000000000e+00 -0.000000000000000e+00 -0.000000000000000e+00
-0.000000000000000e+00 -0.000000000000000e+00 1.778279841366341e-63
-0.000000000000000e+00 -0.000000000000000e+00 -0.000000000000000e+00
-0.000000000000000e+00 -0.000000000000000e+00 -0.000000000000000e+00
-0.000000000000000e+00 -0.000000000000000e+00 -0.000000000000000e+00
-4.336808689942019e-22 1.314595134138674e-21 1.844154937446307e-04
3.079134169858834e-20 2.495020249432268e-20 2.576193860891684e-03
-4.336808689942019e-22 2.297153352953663e-21 1.844154937446802e-04
-5.637851296924624e-21 5.814034149953519e-20 2.576193860892169e-03
-3.034930929266262e-65 3.117081245895826e-22 1.844154937446651e-04
3.252606517456514e-20 5.746271514173175e-21 2.576193860892166e-03
-0.000000000000000e+00 -0.000000000000000e+00 -0.000000000000000e+00
-0.000000000000000e+00 -0.000000000000000e+00 -0.000000000000000e+00
-8.673617379884038e-22 6.247715018947721e-20 1.844154937446397e-04
-2.602085213965211e-21 2.792816704896146e-18 2.576193860891707e-03
-0.000000000000000e+00 -0.000000000000000e+00 1.778279841366387e-63
-0.000000000000000e+00 -0.000000000000000e+00 -0.000000000000000e+00
-3.034930929266381e-65 -1.398349751963180e-19 1.844154937446725e-04
-2.298508605669270e-20 -5.865953881488419e-18 2.576193860892165e-03
-0.000000000000000e+00 -0.000000000000000e+00 -0.000000000000000e+00
-0.000000000000000e+00 -0.000000000000000e+00 -0.000000000000000e+00
-8.673617379884038e-22 5.014435047745460e-22 1.844154937446679e-04
3.382710778154774e-20 2.067438017658297e-20 2.576193860892204e-03
-0.000000000000000e+00 -0.000000000000000e+00 1.778279841366409e-63
-0.000000000000000e+00 -0.000000000000000e+00 1.778279841366296e-63
-8.673617379884038e-22 5.421010862427523e-23 1.844154937446537e-04
2.168404344971009e-20 -3.871279382131055e-20 2.576193860891903e-03
-0.000000000000000e+00 -0.000000000000000e+00 -0.000000000000000e+00
-0.000000000000000e+00 -0.000000000000000e+00 -0.000000000000000e+00
8.673617379884038e-22 8.673617379884038e-22 1.844154937446754e-04
1.474514954580286e-20 1.891255164629402e-20 2.576193860892206e-03
-3.034930929266480e-65 1.423015351387225e-21 1.844154937446784e-04
-1.908195823574488e-20 5.677153625677224e-20 2.576193860892246e-03
-4.336808689942019e-22 -7.928228386300254e-22 1.844154937446551e-04
-3.426078865054195e-20 3.642919299551296e-20 2.576193860892517e-03
-4.336808689942019e-22 -2.256495771485457e-21 1.844154937446811e-04
-3.903127820947817e-21 3.798095735488284e-20 2.576193860892181e-03
-4.336808689942019e-22 1.971892701208012e-21 1.844154937446744e-04
-3.034930929265670e-65 -9.419006373467822e-22 1.844154937446293e-04
-2.471980953266951e-20 -1.242089113853706e-20 2.576193860891664e-03
-6.721375843052326e-20 -0.000000000000000e+00 1.844154937445907e-04
-2.821839441800867e-18 7.372574772901432e-21 2.576193860890444e-03
-8.673617379884038e-22 1.084202172485505e-21 1.844154937446316e-04
3.035766082959413e-20 -3.034410830243806e-20 2.576193860891698e-03
8.673617379884038e-22 -6.696981294171402e-20 1.844154937446332e-04
9.107298248878239e-21 -2.815388438874578e-18 2.576193860891615e-03
4.336808689942019e-22 -2.737610485525899e-21 1.844154937446278e-04
3.469446951953615e-21 6.476075101527480e-20 2.576193860891541e-03
-4.336808689942019e-22 2.385244779468110e-21 1.844154937446388e-04
-4.336808689942019e-21 -4.893817556056447e-20 2.576193860891694e-03
-4.336808689942019e-22 -1.931235119739805e-21 1.844154937446387e-04
-8.673617379884038e-22 1.158266733393421e-19 2.576193860891796e-03
-4.336808689942019e-22 1.070649645329436e-21 1.844154937446371e-04
-9.107298248878239e-21 -5.112013243269154e-20 2.576193860891670e-03
-4.336808689942019e-22 5.624298769768555e-22 1.844154937446446e-04
-3.512815038853035e-20 -4.693240154146629e-20 2.576193860891877e-03
4.336808689942019e-22 -2.148075554236906e-21 1.844154937446414e-04
1.431146867680866e-20 1.678480488279122e-20 2.576193860891729e-03
8.673617379884038e-22 -2.100641709190665e-22 1.844154937446406e-04
-3.035766082959413e-21 -6.976163353586419e-20 2.576193860891719e-03
-4.336808689942019e-22 -1.707618421664670e-21 1.844154937446481e-04
2.125036258071589e-20 6.016644430936747e-20 2.576193860892524e-03
-3.034930929265785e-65 3.997995511040298e-22 1.844154937446363e-04
1.691355389077387e-20 6.219932338277780e-20 2.576193860891762e-03
-4.336808689942019e-22 2.574980159653074e-21 1.844154937446309e-04
1.127570259384925e-20 8.173529127825099e-20 2.576193860891686e-03
4.336808689942019e-22 -3.591419696358234e-22 1.844154937446411e-04
-1.691355389077387e-20 -6.301247501214193e-20 2.576193860891828e-03
1.647987302177967e-20 -2.116904741777948e-20 2.576193860892190e-03
-8.673617379884038e-22 -1.565316886525947e-21 1.844154937446532e-04
-3.382710778154774e-20 4.336808689942019e-20 2.576193860891897e-03
-0.000000000000000e+00 -0.000000000000000e+00 -0.000000000000000e+00
4.336808689942019e-22 1.890577538271599e-21 1.844154937446226e-04
3.035766082959413e-21 -3.449118161219512e-21 2.576193860892166e-03
8.673617379884038e-22 -2.764715539838037e-21 1.844154937446864e-04
-7.372574772901432e-21 2.223292079953088e-20 2.576193860893059e-03
-8.673617379884038e-22 -2.710505431213762e-22 1.844154937446819e-04
1.474514954580286e-20 -3.463348314733384e-20 2.576193860892191e-03
8.673617379884038e-22 1.544988095791844e-21 1.844154937446690e-04
1.431146867680866e-20 -1.810617628050793e-20 2.576193860892116e-03
8.673617379884038e-22 -8.809142651444725e-23 1.844154937446543e-04
7.372574772901432e-21 -1.461640053782021e-20 2.576193860892014e-03
-3.034930929266360e-65 1.558540622947913e-22 1.844154937446712e-04
2.081668171172169e-20 -5.902803202825770e-20 2.576193860892247e-03
-3.034930929266385e-65 1.517883041479707e-21 1.844154937446727e-04
9.974659986866644e-21 5.319366908757007e-21 2.576193860892066e-03
-3.034930929265792e-65 -5.624298769768555e-22 1.844154937446367e-04
-3.339342691255354e-20 5.900092697394556e-20 2.576193860891871e-03
8.673617379884038e-22 -1.877025011115530e-21 1.844154937446475e-04
-1.301042606982606e-21 -2.808761253095261e-20 2.576193860891816e-03
-4.336808689942019e-22 -2.574980159653073e-22 1.844154937446586e-04
3.035766082959413e-21 5.206880933361636e-20 2.576193860891970e-03
-3.034930929266141e-65 -8.131516293641286e-23 1.844154937446579e-04
-2.992397996059993e-20 -5.487418245492261e-20 2.576193860891961e-03
-4.855889486825646e-64 -1.131636017531746e-21 1.844154937446529e-04
-1.127570259384925e-20 -6.763388677236138e-20 2.576193860892591e-03
-3.034930929265899e-65 2.032879073410321e-23 1.844154937446433e-04
1.908195823574488e-20 -2.371692252312042e-21 2.576193860891860e-03
-3.034930929265891e-65 1.016439536705161e-21 1.844154937446427e-04
-3.469446951953615e-20 -4.648516814531601e-20 2.576193860891853e-03
4.336808689942019e-22 -2.032879073410321e-23 1.844154937446487e-04
1.778091562876228e-20 3.927522369828741e-20 2.576193860891831e-03
-3.034930929265896e-65 6.776263578034404e-23 1.844154937446430e-04
-1.561251128379127e-20 7.182839392716469e-22 2.576193860891856e-03
-8.673617379884038e-22 -7.657177843178877e-22 1.844154937446536e-04
-1.474514954580286e-20 4.590240947760506e-20 2.576193860891901e-03
-3.034930929265666e-65 8.605854744103693e-22 1.844154937446290e-04
-0.000000000000000e+00 -0.000000000000000e+00 -0.000000000000000e+00
-0.000000000000000e+00 -0.000000000000000e+00 -0.000000000000000e+00
-0.000000000000000e+00 -0.000000000000000e+00 -0.000000000000000e+00
-4.336808689942019e-22 -3.794707603699267e-22 1.844154937446552e-04
-6.505213034913028e-21 -5.913645224550625e-20 2.576193860892725e-03
4.336808689942019e-22 5.692061405548900e-22 1.844154937446655e-04
-2.645453300864631e-20 2.520092424670995e-20 2.576193860892665e-03
-0.000000000000000e+00 -0.000000000000000e+00 -0.000000000000000e+00
-0.000000000000000e+00 -0.000000000000000e+00 -0.000000000000000e+00
-0.000000000000000e+00 -0.000000000000000e+00 -0.000000000000000e+00
-0.000000000000000e+00 -0.000000000000000e+00 -0.000000000000000e+00
8.673617379884038e-22 1.605974467994154e-21 1.844154937446474e-04
5.637851296924624e-21 1.816038638913220e-21 2.576193860891916e-03
-8.673617379884038e-22 2.202285662861181e-21 1.844154937446610e-04
-9.540979117872441e-21 -1.832979297858306e-20 2.576193860892004e-03
-0.000000000000000e+00 -0.000000000000000e+00 -0.000000000000000e+00
-0.000000000000000e+00 -0.000000000000000e+00 -0.000000000000000e+00
-0.000000000000000e+00 -0.000000000000000e+00 -0.000000000000000e+00
-0.000000000000000e+00 -0.000000000000000e+00 -0.000000000000000e+00
-0.000000000000000e+00 -0.000000000000000e+00 -0.000000000000000e+00
-0.000000000000000e+00 -0.000000000000000e+00 -0.000000000000000e+00
-0.000000000000000e+00 -0.000000000000000e+00 -0.000000000000000e+00
-0.000000000000000e+00 -0.000000000000000e+00 -0.000000000000000e+00
1.170938346284345e-20 2.450296909817241e-20 2.576193860891661e-03
8.673617379884038e-22 1.958340174051943e-21 1.844154937446723e-04
-2.298508605669270e-20 2.873813383444391e-20 2.576193860892759e-03
-4.336808689942019e-22 -1.998997755520149e-21 1.844154937446515e-04
2.385244779468110e-20 -9.581636699340648e-21 2.576193860891974e-03
-8.673617379884038e-22 -4.269046054161675e-22 1.844154937446468e-04
-3.382710778154774e-20 -1.235990476633475e-20 2.576193860891909e-03
-0.000000000000000e+00 -0.000000000000000e+00 -0.000000000000000e+00
-0.000000000000000e+00 -0.000000000000000e+00 -0.000000000000000e+00
-4.336808689942019e-22 4.065758146820643e-23 1.844154937446592e-04
-1.431146867680866e-20 6.189439152176625e-20 2.576193860891978e-03
-0.000000000000000e+00 -0.000000000000000e+00 -0.000000000000000e+00
-0.000000000000000e+00 -0.000000000000000e+00 -0.000000000000000e+00
-3.034930929265563e-65 -6.485561870536728e-20 1.844154937446228e-04
-1.084202172485505e-20 -2.808564741451498e-18 2.576193860891572e-03
-0.000000000000000e+00 -0.000000000000000e+00 1.778279841366710e-63
-0.000000000000000e+00 -0.000000000000000e+00 -0.000000000000000e+00
-3.034930929265678e-65 2.439454888092386e-22 1.844154937446298e-04
-2.471980953266951e-20 -5.416945104280703e-20 2.576193860891671e-03
-0.000000000000000e+00 -0.000000000000000e+00 -0.000000000000000e+00
-0.000000000000000e+00 -0.000000000000000e+00 -0.000000000000000e+00
-6.685461646088744e-20 -4.336808689942019e-22 1.844154937446274e-04
-2.789293047835568e-18 8.673617379884037e-21 2.576193860891637e-03
-0.000000000000000e+00 -0.000000000000000e+00 -0.000000000000000e+00
-0.000000000000000e+00 -0.000000000000000e+00 -0.000000000000000e+00
-1.357752890395607e-19 -1.371380222922603e-19 1.844154937447203e-04
-5.776728706135895e-18 -5.962075180342837e-18 2.576193860892729e-03
-8.673617379884038e-22 2.358139725155973e-21 1.844154937447103e-04
1.994931997373329e-20 4.773877690725238e-20 2.576193860892692e-03
-8.673617379884038e-22 1.355252715606881e-22 1.844154937446820e-04
-2.602085213965211e-21 -5.374254643739086e-20 2.576193860892193e-03
-4.336808689942019e-22 -2.710505431213762e-22 1.844154937447086e-04
-2.168404344971009e-21 4.596339584980736e-20 2.576193860892669e-03
-4.336808689942019e-22 -6.572975670693372e-22 1.844154937447083e-04
-0.000000000000000e+00 -0.000000000000000e+00 -0.000000000000000e+00
3.948574448223032e-79 -0.000000000000000e+00 1.778279841366189e-63
1.691355389077387e-20 -4.022390059921223e-20 2.576193860892565e-03
-0.000000000000000e+00 -0.000000000000000e+00 -0.000000000000000e+00
-0.000000000000000e+00 -0.000000000000000e+00 -0.000000000000000e+00
-0.000000000000000e+00 -0.000000000000000e+00 -0.000000000000000e+00
-4.935718060278264e-80 -0.000000000000000e+00 1.778279841366000e-63
-4.336808689942019e-22 6.813533027713594e-20 1.844154937446663e-04
-0.000000000000000e+00 -0.000000000000000e+00 -0.000000000000000e+00
-0.000000000000000e+00 -0.000000000000000e+00 -0.000000000000000e+00
-5.637851296924624e-21 2.824922641728873e-18 2.576193860892079e-03
-0.000000000000000e+00 -0.000000000000000e+00 -0.000000000000000e+00
-0.000000000000000e+00 -0.000000000000000e+00 -0.000000000000000e+00
-0.000000000000000e+00 -0.000000000000000e+00 1.778279841366170e-63
-0.000000000000000e+00 -0.000000000000000e+00 1.778279841366166e-63
4.336808689942019e-22 -1.334923924872778e-21 1.844154937446845e-04
-0.000000000000000e+00 -0.000000000000000e+00 -0.000000000000000e+00
-0.000000000000000e+00 -0.000000000000000e+00 -0.000000000000000e+00
-3.426078865054195e-20 2.630545520992956e-20 2.576193860892229e-03
-0.000000000000000e+00 -0.000000000000000e+00 -0.000000000000000e+00
-0.000000000000000e+00 -0.000000000000000e+00 -0.000000000000000e+00
-8.673617379884038e-22 2.378468515890076e-21 1.844154937446175e-04
1.994931997373329e-20 6.675974877079495e-20 2.576193860891499e-03
-4.336808689942019e-22 4.675621868843739e-22 1.844154937445853e-04
2.168404344971009e-20 5.355281105720590e-20 2.576193860890266e-03
-0.000000000000000e+00 -0.000000000000000e+00 -0.000000000000000e+00
-0.000000000000000e+00 -0.000000000000000e+00 -0.000000000000000e+00
-0.000000000000000e+00 -0.000000000000000e+00 -0.000000000000000e+00
-0.000000000000000e+00 -0.000000000000000e+00 -0.000000000000000e+00
-0.000000000000000e+00 -0.000000000000000e+00 -0.000000000000000e+00
-0.000000000000000e+00 -0.000000000000000e+00 -0.000000000000000e+00
-0.000000000000000e+00 -0.000000000000000e+00 -0.000000000000000e+00
-0.000000000000000e+00 -0.000000000000000e+00 -0.000000000000000e+00
-0.000000000000000e+00 -0.000000000000000e+00 -0.000000000000000e+00
-0.000000000000000e+00 -0.000000000000000e+00 -0.000000000000000e+00
-0.000000000000000e+00 -0.000000000000000e+00 -0.000000000000000e+00
-0.000000000000000e+00 -0.000000000000000e+00 1.778279841366408e-63
-0.000000000000000e+00 -0.000000000000000e+00 -0.000000000000000e+00
-0.000000000000000e+00 -0.000000000000000e+00 -0.000000000000000e+00
-0.000000000000000e+00 -0.000000000000000e+00 -0.000000000000000e+00
-4.336808689942019e-22 -1.456896669277397e-21 1.844154937446172e-04
-1.301042606982606e-20 -4.679010000632756e-20 2.576193860891496e-03
-3.034930929265440e-65 6.494371013188173e-20 1.844154937446153e-04
3.035766082959413e-21 2.891926335988477e-18 2.576193860891468e-03
-3.034930929265207e-65 -1.470449196433466e-21 1.844154937446011e-04
-5.637851296924624e-21 1.610040226140975e-20 2.576193860891270e-03
-4.336808689942019e-22 9.215718466126790e-22 1.844154937446164e-04
-1.431146867680866e-20 3.451828666650726e-20 2.576193860891484e-03
4.336808689942019e-22 1.809262375335186e-21 1.844154937446697e-04
-4.770489558936221e-21 2.206351421008002e-20 2.576193860892125e-03
8.673617379884038e-22 6.572975670693372e-22 1.844154937446691e-04
-3.035766082959413e-21 5.472510465620585e-20 2.576193860892117e-03
-1.406277980349480e-19 -8.673617379884038e-22 1.844154937446757e-04
-5.828589564119137e-18 -1.778091562876228e-20 2.576193860892210e-03
4.336808689942019e-22 -6.408990092104939e-20 1.844154937446624e-04
-2.732189474663472e-20 -2.767832621083933e-18 2.576193860892023e-03
4.336808689942019e-22 -2.459783678826489e-21 1.844154937446623e-04
-1.170938346284345e-20 4.335453437226412e-20 2.576193860892022e-03
-4.336808689942019e-22 -1.768604793866980e-21 1.844154937446666e-04
3.035766082959413e-20 2.925312986637452e-20 2.576193860892184e-03
-4.336808689942019e-22 1.456896669277397e-21 1.844154937446373e-04
1.691355389077387e-20 -1.045577470090709e-20 2.576193860891774e-03
6.539771979161003e-20 4.336808689942019e-22 1.844154937446312e-04
-3.034930929265657e-65 5.624298769768555e-22 1.844154937446285e-04
2.428612866367531e-20 -4.065758146820643e-23 2.576193860891551e-03
9.015141064216972e-20 4.855889486825108e-64 1.844154937446325e-04
2.938038809637001e-18 -3.035766082959413e-20 2.576193860892305e-03
2.929310982148492e-18 -2.688821387764052e-20 2.576193860891589e-03
-4.336808689942019e-22 -1.626303258728257e-21 1.844154937446375e-04
-5.637851296924624e-21 -6.899591575154630e-20 2.576193860891675e-03
8.673617379884038e-22 -6.369687763352340e-22 1.844154937446192e-04
8.673617379884038e-22 -2.344587197999904e-21 1.844154937446261e-04
2.818925648462312e-20 -6.326319676452920e-20 2.576193860891619e-03
-3.034930929265425e-65 5.217722955086491e-22 1.844154937446143e-04
3.469446951953615e-21 1.201431532385500e-20 2.576193860891456e-03
-1.517883041479707e-20 -6.026808826303799e-20 2.576193860891521e-03
-0.000000000000000e+00 -0.000000000000000e+00 -0.000000000000000e+00
-0.000000000000000e+00 -0.000000000000000e+00 -0.000000000000000e+00
-2.834511054691791e-20 4.336808689942019e-22 1.844154937446275e-04
4.336808689942019e-22 -6.234162491791652e-22 1.844154937446280e-04
2.775557561562892e-20 2.202285662861181e-21 2.576193860891648e-03
-3.034930929265550e-65 1.707618421664670e-21 1.844154937446220e-04
-2.818925648462312e-20 1.755052266710911e-20 2.576193860891562e-03
1.115440747580243e-19 -1.387778780781446e-20 2.576193860892338e-03
-0.000000000000000e+00 -0.000000000000000e+00 -0.000000000000000e+00
-0.000000000000000e+00 -0.000000000000000e+00 -0.000000000000000e+00
6.807434390493363e-20 4.336808689942019e-22 1.844154937446666e-04
8.673617379884038e-22 -9.961107459710575e-22 1.844154937446330e-04
2.645453300864631e-20 5.089651573461641e-20 2.576193860891614e-03
4.336808689942019e-22 -1.253608761936365e-21 1.844154937446231e-04
3.035766082959413e-21 -3.609037981661124e-20 2.576193860892174e-03
2.817929537716341e-18 -2.905661822261153e-20 2.576193860892082e-03
4.336808689942019e-22 -1.321371397716709e-21 1.844154937446416e-04
-4.770489558936221e-21 2.931411623857684e-20 2.576193860891732e-03
8.673617379884038e-22 -2.655617696231683e-20 1.844154937446115e-04
-3.034930929265676e-65 1.572093150103982e-21 1.844154937446297e-04
-7.372574772901432e-21 -3.159094080079639e-20 2.576193860891669e-03
2.352041087935742e-20 -4.336808689942019e-22 1.844154937446269e-04
6.586189384670539e-19 9.974659986866644e-21 2.576193860891630e-03
2.168404344971009e-21 -6.334993293832804e-19 2.576193860891415e-03
-0.000000000000000e+00 -0.000000000000000e+00 -0.000000000000000e+00
-0.000000000000000e+00 -0.000000000000000e+00 -0.000000000000000e+00
-0.000000000000000e+00 -0.000000000000000e+00 -0.000000000000000e+00
-0.000000000000000e+00 -0.000000000000000e+00 1.778279841366574e-63
-0.000000000000000e+00 -0.000000000000000e+00 -0.000000000000000e+00
-0.000000000000000e+00 -0.000000000000000e+00 -0.000000000000000e+00
-0.000000000000000e+00 -0.000000000000000e+00 -0.000000000000000e+00
-0.000000000000000e+00 -0.000000000000000e+00 -0.000000000000000e+00
-0.000000000000000e+00 -0.000000000000000e+00 -0.000000000000000e+00
8.673617379884038e-22 -2.615637741121280e-21 1.844154937446255e-04
-7.806255641895634e-21 6.310056643865638e-20 2.576193860891610e-03
8.673617379884038e-22 -2.283600825797594e-21 1.844154937446330e-04
-2.558717127065791e-20 6.436095146417078e-20 2.576193860891612e-03
-0.000000000000000e+00 -0.000000000000000e+00 -0.000000000000000e+00
-0.000000000000000e+00 -0.000000000000000e+00 -0.000000000000000e+00
-0.000000000000000e+00 -0.000000000000000e+00 -0.000000000000000e+00
-0.000000000000000e+00 -0.000000000000000e+00 -0.000000000000000e+00
-3.034930929265433e-65 4.065758146820642e-22 1.844154937446148e-04
3.035766082959413e-21 4.704082175871484e-20 2.576193860891461e-03