<?xml version="1.0" ?> 
<!-- 
# vtk DataFile Version 3.0
-->
<VTKFile type="UnstructuredGrid" version="0.1" compressor="vtkZLibDataCompressor" byte_order="LittleEndian">
  <UnstructuredGrid>
    <FieldData>
      <DataArray type="Float64" Name="TIME" NumberOfTuples="1" format="ascii">
1.250000000000001e-01 
      </DataArray>
    </FieldData>

    <Piece NumberOfPoints="500" NumberOfCells="0" >
      <Points>
        <DataArray type="Float64" NumberOfComponents="3" format="ascii">
-4.499630305760648e-01 -4.499630305760647e-01 1.539515438356085e+00
-4.499727420106880e-01 -4.499727420106880e-01 1.638470891258881e+00
-4.499799405240456e-01 -4.499799405240455e-01 1.737504740250022e+00
-4.499843125015131e-01 -4.499843125015131e-01 1.836463962343463e+00
-4.499911762782888e-01 -4.499911762782888e-01 1.935532906383489e+00
-4.499497171268093e-01 -3.499071242899839e-01 1.539495864035317e+00
-4.499638075265660e-01 -3.499285527040502e-01 1.638455746467105e+00
-4.499745201456039e-01 -3.499463879277772e-01 1.737495165647861e+00
-4.499813806971749e-01 -3.499582836241040e-01 1.836461051878853e+00
-4.499900274138260e-01 -3.499766815601856e-01 1.935533260531526e+00
-4.499194660841707e-01 -2.498677918348263e-01 1.539467841347275e+00
-4.499509492408608e-01 -2.499012530740699e-01 1.638434893928596e+00
-4.499662902678365e-01 -2.499279439166837e-01 1.737479467408109e+00
-4.499761492123632e-01 -2.499457033143208e-01 1.836455746203673e+00
-4.499880794351391e-01 -2.499702893402647e-01 1.935533633458310e+00
-4.498409805100066e-01 -1.498706894156306e-01 1.539419939282873e+00
-4.499230744292883e-01 -1.499077007736835e-01 1.638402088501995e+00
-4.499543355064725e-01 -1.499362381819556e-01 1.737456871609590e+00
-4.499693831338210e-01 -1.499537125075001e-01 1.836447552168572e+00
-4.499857953867107e-01 -1.499751511095141e-01 1.935533200077526e+00
-4.497880061979955e-01 -4.995001867136545e-02 1.539387582895149e+00
-4.499043319346077e-01 -4.996317996068491e-02 1.638379839083915e+00
-4.499458660818361e-01 -4.997461989353384e-02 1.737440952381679e+00
-4.499648091726310e-01 -4.998193501235472e-02 1.836441797917775e+00
-4.499843071761532e-01 -4.999037834704780e-02 1.935532753420597e+00
-4.497880061979956e-01 4.995001867136556e-02 1.539387582895149e+00
-4.499043319346077e-01 4.996317996068506e-02 1.638379839083915e+00
-4.499458660818360e-01 4.997461989353392e-02 1.737440952381679e+00
-4.499648091726310e-01 4.998193501235480e-02 1.836441797917775e+00
-4.499843071761533e-01 4.999037834704788e-02 1.935532753420597e+00
-4.498409805100066e-01 1.498706894156306e-01 1.539419939282873e+00
-4.499230744292882e-01 1.499077007736836e-01 1.638402088501995e+00
-4.499543355064725e-01 1.499362381819555e-01 1.737456871609590e+00
-4.499693831338209e-01 1.499537125075002e-01 1.836447552168572e+00
-4.499857953867107e-01 1.499751511095142e-01 1.935533200077527e+00
-4.499194660841707e-01 2.498677918348264e-01 1.539467841347275e+00
-4.499509492408607e-01 2.499012530740699e-01 1.638434893928596e+00
-4.499662902678364e-01 2.499279439166837e-01 1.737479467408109e+00
-4.499761492123632e-01 2.499457033143208e-01 1.836455746203672e+00
-4.499880794351391e-01 2.499702893402648e-01 1.935533633458309e+00
-4.499497171268093e-01 3.499071242899841e-01 1.539495864035317e+00
-4.499638075265661e-01 3.499285527040502e-01 1.638455746467105e+00
-4.499745201456040e-01 3.499463879277773e-01 1.737495165647861e+00
-4.499813806971750e-01 3.499582836241040e-01 1.836461051878853e+00
-4.499900274138261e-01 3.499766815601856e-01 1.935533260531526e+00
-4.499630305760648e-01 4.499630305760648e-01 1.539515438356085e+00
-4.499727420106881e-01 4.499727420106880e-01 1.638470891258881e+00
-4.499799405240455e-01 4.499799405240455e-01 1.737504740250021e+00
-4.499843125015131e-01 4.499843125015131e-01 1.836463962343463e+00
-4.499911762782887e-01 4.499911762782888e-01 1.935532906383489e+00
-3.499071242899840e-01 -4.499497171268093e-01 1.539495864035317e+00
-3.499285527040503e-01 -4.499638075265661e-01 1.638455746467105e+00
-3.499463879277772e-01 -4.499745201456039e-01 1.737495165647861e+00
-3.499582836241040e-01 -4.499813806971750e-01 1.836461051878853e+00
-3.499766815601856e-01 -4.499900274138260e-01 1.935533260531526e+00
-3.498760179267755e-01 -3.498760179267756e-01 1.539460919724785e+00
-3.499110503033875e-01 -3.499110503033875e-01 1.638436947894461e+00
-3.499338818175368e-01 -3.499338818175369e-01 1.737480182278544e+00
-3.499500843558462e-01 -3.499500843558462e-01 1.836455077209431e+00
-3.499735718758644e-01 -3.499735718758645e-01 1.935532566207035e+00
-3.498824160698608e-01 -2.497733366623333e-01 1.539409237562619e+00
-3.498853838883810e-01 -2.498552125662493e-01 1.638405845212164e+00
-3.499178993854479e-01 -2.499090019593440e-01 1.737458241024788e+00
-3.499359808969445e-01 -2.499331972331287e-01 1.836445636377360e+00
-3.499682745676451e-01 -2.499659014478089e-01 1.935530801549321e+00
-3.498350502583175e-01 -1.497527760856494e-01 1.539293879709760e+00
-3.498088356356446e-01 -1.498492551314293e-01 1.638324370536117e+00
-3.498899234674870e-01 -1.499150357667535e-01 1.737416108483231e+00
-3.499174794726914e-01 -1.499415447250725e-01 1.836430755511379e+00
-3.499619689362483e-01 -1.499711362121487e-01 1.935527111428382e+00
-3.497698811803080e-01 -4.988312978220105e-02 1.539182220979263e+00
-3.497518567624243e-01 -4.994119691405188e-02 1.638262796073197e+00
-3.498716737135594e-01 -4.996654264520461e-02 1.737387115938003e+00
-3.499049125072224e-01 -4.997686577387042e-02 1.836420249151056e+00
-3.499578384378870e-01 -4.998878354178694e-02 1.935524370319822e+00
-3.497698811803081e-01 4.988312978220114e-02 1.539182220979263e+00
-3.497518567624244e-01 4.994119691405200e-02 1.638262796073197e+00
-3.498716737135594e-01 4.996654264520470e-02 1.737387115938003e+00
-3.499049125072224e-01 4.997686577387043e-02 1.836420249151056e+00
-3.499578384378870e-01 4.998878354178704e-02 1.935524370319822e+00
-3.498350502583175e-01 1.497527760856495e-01 1.539293879709759e+00
-3.498088356356446e-01 1.498492551314293e-01 1.638324370536117e+00
-3.498899234674870e-01 1.499150357667534e-01 1.737416108483231e+00
-3.499174794726914e-01 1.499415447250726e-01 1.836430755511379e+00
-3.499619689362483e-01 1.499711362121488e-01 1.935527111428383e+00
-3.498824160698608e-01 2.497733366623334e-01 1.539409237562619e+00
-3.498853838883810e-01 2.498552125662493e-01 1.638405845212164e+00
-3.499178993854478e-01 2.499090019593440e-01 1.737458241024788e+00
-3.499359808969444e-01 2.499331972331287e-01 1.836445636377360e+00
-3.499682745676451e-01 2.499659014478089e-01 1.935530801549321e+00
-3.498760179267756e-01 3.498760179267756e-01 1.539460919724785e+00
-3.499110503033875e-01 3.499110503033875e-01 1.638436947894461e+00
-3.499338818175369e-01 3.499338818175368e-01 1.737480182278544e+00
-3.499500843558462e-01 3.499500843558463e-01 1.836455077209431e+00
-3.499735718758645e-01 3.499735718758646e-01 1.935532566207035e+00
-3.499071242899839e-01 4.499497171268093e-01 1.539495864035317e+00
-3.499285527040502e-01 4.499638075265661e-01 1.638455746467105e+00
-3.499463879277772e-01 4.499745201456040e-01 1.737495165647861e+00
-3.499582836241040e-01 4.499813806971750e-01 1.836461051878853e+00
-3.499766815601855e-01 4.499900274138262e-01 1.935533260531526e+00
-2.498677918348263e-01 -4.499194660841707e-01 1.539467841347275e+00
-2.499012530740699e-01 -4.499509492408607e-01 1.638434893928596e+00
-2.499279439166836e-01 -4.499662902678364e-01 1.737479467408109e+00
-2.499457033143207e-01 -4.499761492123632e-01 1.836455746203673e+00
-2.499702893402647e-01 -4.499880794351391e-01 1.935533633458310e+00
-2.497733366623333e-01 -3.498824160698609e-01 1.539409237562619e+00
-2.498552125662493e-01 -3.498853838883811e-01 1.638405845212164e+00
-2.499090019593440e-01 -3.499178993854478e-01 1.737458241024788e+00
-2.499331972331286e-01 -3.499359808969444e-01 1.836445636377360e+00
-2.499659014478089e-01 -3.499682745676451e-01 1.935530801549321e+00
-2.498869753709311e-01 -2.498869753709310e-01 1.539663209184298e+00
-2.497901333867218e-01 -2.497901333867219e-01 1.638427738552263e+00
-2.498813449403751e-01 -2.498813449403751e-01 1.737425755580747e+00
-2.499118198092725e-01 -2.499118198092724e-01 1.836433162393337e+00
-2.499583474942991e-01 -2.499583474942990e-01 1.935524803342114e+00
-2.495017168153220e-01 -1.498019665788871e-01 1.539658491380388e+00
-2.496179513688010e-01 -1.497632787369468e-01 1.638382046369143e+00
-2.498256732080542e-01 -1.498817808212861e-01 1.737335658306284e+00
-2.498828732439003e-01 -1.499202888321507e-01 1.836410842248340e+00
-2.499492101547759e-01 -1.499641594328242e-01 1.935514705613794e+00
-2.493364832986953e-01 -4.992158478075074e-02 1.539673904242516e+00
-2.494735923993999e-01 -4.988385903247723e-02 1.638315372401424e+00
-2.497894206329343e-01 -4.995567100987089e-02 1.737273597258736e+00
-2.498630868645433e-01 -4.996811320023740e-02 1.836395489514922e+00
-2.499431553441699e-01 -4.998597843744887e-02 1.935507405640130e+00
-2.493364832986952e-01 4.992158478075084e-02 1.539673904242516e+00
-2.494735923993999e-01 4.988385903247731e-02 1.638315372401424e+00
-2.497894206329344e-01 4.995567100987097e-02 1.737273597258736e+00
-2.498630868645433e-01 4.996811320023745e-02 1.836395489514922e+00
-2.499431553441699e-01 4.998597843744894e-02 1.935507405640130e+00
-2.495017168153219e-01 1.498019665788871e-01 1.539658491380388e+00
-2.496179513688010e-01 1.497632787369468e-01 1.638382046369142e+00
-2.498256732080543e-01 1.498817808212862e-01 1.737335658306284e+00
-2.498828732439004e-01 1.499202888321507e-01 1.836410842248340e+00
-2.499492101547759e-01 1.499641594328244e-01 1.935514705613794e+00
-2.498869753709310e-01 2.498869753709311e-01 1.539663209184298e+00
-2.497901333867218e-01 2.497901333867218e-01 1.638427738552263e+00
-2.498813449403751e-01 2.498813449403752e-01 1.737425755580747e+00
-2.499118198092725e-01 2.499118198092725e-01 1.836433162393336e+00
-2.499583474942991e-01 2.499583474942992e-01 1.935524803342115e+00
[...]
  <PointData>
        <DataArray type="Float64" Name="acceleration" NumberOfComponents="3" format="ascii">
2.262256707962925e-02 2.262256707963299e-02 5.533298870825255e-01
1.570712482283172e-02 1.570712482290719e-02 5.862369079556853e-02
9.971053836245554e-03 9.971053836370791e-03 -1.772136542401670e-01
3.223446958774769e-03 3.223446958994011e-03 -2.199006543531111e-01
-1.281655197949554e-03 -1.281655197609777e-03 -8.423314134058479e-02
6.430636539453357e-03 5.216522048538463e-02 5.365792514053619e-01
-9.100354310930336e-04 3.446014806783291e-02 5.141813302033858e-02
1.096536400663900e-03 2.260363007052021e-02 -1.872914311039884e-01
3.739445219862613e-04 7.135328376848368e-03 -2.336979626982362e-01
-1.699796583955143e-03 -3.743582382548316e-03 -9.205684862717867e-02
6.129812242751162e-03 7.385119608197319e-02 5.049174082694164e-01
-2.275638071535249e-02 4.302482738979385e-02 4.055485299366405e-02
-1.433889159640835e-02 2.678643063935041e-02 -2.008442666981965e-01
-4.439862556949409e-03 8.514881422388900e-03 -2.546084307298558e-01
-2.570621544106704e-03 -4.648985423056851e-03 -1.044076504829405e-01
4.337670783320309e-02 6.700258266871768e-02 4.607456941377155e-01
-3.289027298836249e-02 3.707245813302697e-02 2.363936923240158e-02
-2.848255616546605e-02 2.235598723463841e-02 -2.156804207008368e-01
-8.875387984987533e-03 7.290553526420844e-03 -2.756171218695498e-01
-3.455113155990381e-03 -3.613960522354348e-03 -1.169247555789532e-01
7.566696224519338e-02 2.246553744539781e-02 4.320918598235923e-01
-3.873643445027518e-02 1.276312240384503e-02 1.429990337890161e-02
-3.759239051703996e-02 8.230980520465059e-03 -2.243973062303274e-01
-1.148553784714509e-02 2.687762324781399e-03 -2.885441529954127e-01
-4.030779750065072e-03 -1.429204592273936e-03 -1.246669530840503e-01
7.566696224513263e-02 -2.246553744535691e-02 4.320918598236389e-01
-3.873643445031846e-02 -1.276312240375488e-02 1.429990337881982e-02
-3.759239051706103e-02 -8.230980520614248e-03 -2.243973062304375e-01
-1.148553784706207e-02 -2.687762325057244e-03 -2.885441529954670e-01
-4.030779749924849e-03 1.429204591915131e-03 -1.246669530841089e-01
4.337670783291030e-02 -6.700258266871471e-02 4.607456941378442e-01
-3.289027298860851e-02 -3.707245813304167e-02 2.363936923230843e-02
-2.848255616548719e-02 -2.235598723458074e-02 -2.156804207010447e-01
-8.875387984780186e-03 -7.290553526418946e-03 -2.756171218698146e-01
-3.455113155553368e-03 3.613960522265603e-03 -1.169247555792285e-01
6.129812242510202e-03 -7.385119608198107e-02 5.049174082694224e-01
-2.275638071553544e-02 -4.302482738995240e-02 4.055485299356223e-02
-1.433889159643409e-02 -2.678643063938314e-02 -2.008442666982401e-01
-4.439862556689745e-03 -8.514881422241966e-03 -2.546084307301120e-01
-2.570621543549715e-03 4.648985423191064e-03 -1.044076504832283e-01
6.430636539402450e-03 -5.216522048556772e-02 5.365792514052454e-01
-9.100354310083260e-04 -3.446014806800704e-02 5.141813302021310e-02
1.096536400845434e-03 -2.260363007064637e-02 -1.872914311038657e-01
3.739445221038796e-04 -7.135328376870698e-03 -2.336979626983319e-01
-1.699796583848497e-03 3.743582382655435e-03 -9.205684862742913e-02
2.262256707960173e-02 -2.262256707949455e-02 5.533298870824297e-01
1.570712482291161e-02 -1.570712482264135e-02 5.862369079553085e-02
9.971053836364048e-03 -9.971053836132353e-03 -1.772136542400992e-01
3.223446958771871e-03 -3.223446958840098e-03 -2.199006543530924e-01
-1.281655198018031e-03 1.281655197812959e-03 -8.423314134060433e-02
5.216522048537445e-02 6.430636539495288e-03 5.365792514052915e-01
3.446014806780213e-02 -9.100354310160921e-04 5.141813302028619e-02
2.260363007054662e-02 1.096536400785114e-03 -1.872914311039538e-01
7.135328376957351e-03 3.739445221613069e-04 -2.336979626983258e-01
-3.743582382419306e-03 -1.699796583676117e-03 -9.205684862731189e-02
1.685413436817360e-02 1.685413436816622e-02 5.161883796923435e-01
-5.667685478647381e-03 -5.667685478593132e-03 5.459159528928140e-02
-3.209977752023638e-03 -3.209977752022812e-03 -1.820126778676751e-01
-1.151260746071239e-03 -1.151260746194379e-03 -2.390486710858237e-01
-5.184808549649002e-03 -5.184808549776987e-03 -9.808549170588599e-02
-7.178734903892903e-02 5.271926481297923e-02 5.077867218469232e-01
-5.580432608363194e-02 1.289172824158553e-02 4.640318250111090e-02
-4.586740199257070e-02 -3.525298558816736e-03 -1.743759754189209e-01
-1.590044627106048e-02 -1.772355908265992e-03 -2.444031249099169e-01
-7.937339500007117e-03 -6.597408845635336e-03 -1.081845002327011e-01
-1.759465163948876e-01 6.751688256281274e-02 5.031641087403100e-01
-8.183068307420978e-02 2.287497361040341e-02 1.591621722284587e-02
-8.294862897095830e-02 -1.041509612996122e-03 -1.772579345021139e-01
-3.010113810040370e-02 -6.561071547719355e-04 -2.494939554408581e-01
-1.059794590263478e-02 -5.162780415972052e-03 -1.194358590869626e-01
-2.299381006982811e-01 2.871316449903407e-02 4.797133889392666e-01
-9.486542644827584e-02 5.151436621474425e-03 -8.077173475663824e-03
-1.074898101204285e-01 -1.876097652329458e-03 -1.782104100577440e-01
-3.904121110419954e-02 -3.749228852532435e-04 -2.519369495096040e-01
-1.225793162702999e-02 -2.055022146263416e-03 -1.268131817181093e-01
-2.299381006983989e-01 -2.871316449922819e-02 4.797133889392501e-01
-9.486542644835676e-02 -5.151436621571734e-03 -8.077173475666116e-03
-1.074898101203864e-01 1.876097652214740e-03 -1.782104100577649e-01
-3.904121110408757e-02 3.749228851570724e-04 -2.519369495095400e-01
-1.225793162694898e-02 2.055022146155493e-03 -1.268131817181537e-01
-1.759465163951150e-01 -6.751688256291243e-02 5.031641087403382e-01
-8.183068307428135e-02 -2.287497361043768e-02 1.591621722301628e-02
-8.294862897080454e-02 1.041509613046515e-03 -1.772579345021265e-01
-3.010113810019833e-02 6.561071548573254e-04 -2.494939554408401e-01
-1.059794590246263e-02 5.162780416157964e-03 -1.194358590869893e-01
-7.178734903909290e-02 -5.271926481277583e-02 5.077867218469142e-01
-5.580432608360403e-02 -1.289172824155704e-02 4.640318250119366e-02
-4.586740199247444e-02 3.525298558791053e-03 -1.743759754188754e-01
-1.590044627096889e-02 1.772355908347533e-03 -2.444031249096914e-01
-7.937339499818903e-03 6.597408845722365e-03 -1.081845002324879e-01
1.685413436825589e-02 -1.685413436816798e-02 5.161883796922555e-01
-5.667685478521968e-03 5.667685478600224e-03 5.459159528928006e-02
-3.209977751957005e-03 3.209977752020878e-03 -1.820126778676128e-01
-1.151260746005484e-03 1.151260746055516e-03 -2.390486710857198e-01
-5.184808549378682e-03 5.184808549525168e-03 -9.808549170588954e-02
5.216522048549566e-02 -6.430636539397155e-03 5.365792514052512e-01
3.446014806791809e-02 9.100354311225265e-04 5.141813302032169e-02
2.260363007060350e-02 -1.096536400704061e-03 -1.872914311039597e-01
7.135328377029083e-03 -3.739445221012571e-04 -2.336979626983471e-01
-3.743582382279800e-03 1.699796583776456e-03 -9.205684862736341e-02
7.385119608185964e-02 6.129812242707331e-03 5.049174082693575e-01
4.302482738974652e-02 -2.275638071536146e-02 4.055485299365456e-02
2.678643063924568e-02 -1.433889159635027e-02 -2.008442666981425e-01
8.514881422233856e-03 -4.439862556840757e-03 -2.546084307298015e-01
-4.648985423108520e-03 -2.570621543980774e-03 -1.044076504829299e-01
5.271926481285620e-02 -7.178734903890334e-02 5.077867218468933e-01
1.289172824148260e-02 -5.580432608358649e-02 4.640318250111898e-02
-3.525298558915021e-03 -4.586740199256268e-02 -1.743759754188272e-01
-1.772355908377779e-03 -1.590044627107676e-02 -2.444031249097426e-01
-6.597408845697131e-03 -7.937339499998067e-03 -1.081845002325181e-01
-1.269337786052436e-01 -1.269337786051450e-01 7.594979088995306e-01
-2.234903313149554e-02 -2.234903313140123e-02 7.472852591695056e-02
-4.832278072029050e-02 -4.832278072021915e-02 -1.511490388746452e-01
-2.046048380565138e-02 -2.046048380569061e-02 -2.195886850135735e-01
-1.006436865490521e-02 -1.006436865505400e-02 -1.159498160997661e-01
-2.053240332173019e-01 -8.949796019485348e-02 1.019152783845692e+00
-1.818181019360014e-02 9.058148652721391e-03 1.021342843016939e-01
-7.835734256246822e-02 -3.341107101706008e-02 -1.658192929228978e-01
-3.786456217483185e-02 -1.551769202981583e-02 -1.927218213557425e-01
-1.309067370559296e-02 -7.751017236655884e-03 -1.270170512796618e-01
-2.485265330915169e-01 -3.188561733076759e-02 1.158865163232912e+00
-2.439528462428080e-03 1.444107565101595e-03 1.087420259737303e-01
-9.766695370696030e-02 -1.691230626795868e-02 -1.785570775751561e-01
-4.910733373369942e-02 -6.429358208521127e-03 -1.726430274307116e-01
-1.483845552903957e-02 -3.057046156525712e-03 -1.351896632892071e-01
-2.485265330915166e-01 3.188561733049235e-02 1.158865163232911e+00
-2.439528462356638e-03 -1.444107565184906e-03 1.087420259738111e-01
-9.766695370681679e-02 1.691230626801752e-02 -1.785570775750777e-01
-4.910733373357472e-02 6.429358208648638e-03 -1.726430274307036e-01
-1.483845552901047e-02 3.057046156484479e-03 -1.351896632893155e-01
-2.053240332172669e-01 8.949796019476260e-02 1.019152783845793e+00
-1.818181019350829e-02 -9.058148652648288e-03 1.021342843020375e-01
-7.835734256228305e-02 3.341107101714845e-02 -1.658192929228259e-01
-3.786456217463902e-02 1.551769202976554e-02 -1.927218213558692e-01
-1.309067370565951e-02 7.751017236625028e-03 -1.270170512798909e-01
-1.269337786051263e-01 1.269337786054980e-01 7.594979088996198e-01
-2.234903313132986e-02 2.234903313146132e-02 7.472852591717635e-02
-4.832278072012236e-02 4.832278072013377e-02 -1.511490388746727e-01
-2.046048380559779e-02 2.046048380565323e-02 -2.195886850136450e-01
-1.006436865513683e-02 1.006436865519704e-02 -1.159498160998726e-01
5.271926481308792e-02 7.178734903906600e-02 5.077867218467685e-01
1.289172824165170e-02 5.580432608359157e-02 4.640318250107216e-02
-3.525298558763024e-03 4.586740199250921e-02 -1.743759754188599e-01
-1.772355908276533e-03 1.590044627109144e-02 -2.444031249096204e-01
-6.597408845653558e-03 7.937339500084770e-03 -1.081845002324080e-01
7.385119608201809e-02 -6.129812242876979e-03 5.049174082692994e-01
4.302482738982553e-02 2.275638071527762e-02 4.055485299360235e-02
2.678643063931957e-02 1.433889159635672e-02 -2.008442666981621e-01
8.514881422367428e-03 4.439862556780374e-03 -2.546084307297025e-01
-4.648985422968883e-03 2.570621543830400e-03 -1.044076504828624e-01
6.700258266867663e-02 4.337670783317311e-02 4.607456941377538e-01
3.707245813302776e-02 -3.289027298844212e-02 2.363936923238150e-02
2.235598723458862e-02 -2.848255616548524e-02 -2.156804207009406e-01
7.290553526223340e-03 -8.875387984985579e-03 -2.756171218696295e-01
-3.613960522620857e-03 -3.455113156026916e-03 -1.169247555790296e-01
6.751688256292769e-02 -1.759465163947976e-01 5.031641087402450e-01
2.287497361038029e-02 -8.183068307418084e-02 1.591621722283286e-02
-1.041509613096975e-03 -8.294862897088860e-02 -1.772579345021166e-01
-6.561071550196741e-04 -3.010113810026684e-02 -2.494939554408776e-01
-5.162780416323200e-03 -1.059794590250631e-02 -1.194358590869733e-01
-8.949796019472610e-02 -2.053240332172215e-01 1.019152783845598e+00
9.058148652685087e-03 -1.818181019350823e-02 1.021342843016871e-01
-3.341107101713114e-02 -7.835734256237353e-02 -1.658192929229011e-01
-1.551769202997335e-02 -3.786456217476122e-02 -1.927218213557311e-01
-7.751017236888104e-03 -1.309067370554731e-02 -1.270170512796973e-01
-2.596575763453580e-02 -2.596575763461979e-02 1.010496996007994e+00
4.115340294304779e-02 4.115340294307462e-02 1.952286654226166e-01
-4.863324496782774e-02 -4.863324496779216e-02 -2.368085669369338e-01
-2.885361004024364e-02 -2.885361004010988e-02 -1.321847592142213e-01
-9.715006185309627e-03 -9.715006185158760e-03 -1.410082080704473e-01
3.691954409776296e-02 -5.596073814003431e-02 9.274960864416193e-01
7.903063527436363e-02 2.055914455798616e-02 2.373074316074135e-01
-5.751796299173795e-02 -2.516750057960148e-02 -2.971602812764823e-01
-3.758918967401108e-02 -1.206583006919090e-02 -8.745667796936385e-02
-1.072198776014973e-02 -3.765303112488060e-03 -1.523053754010277e-01
3.691954409778164e-02 5.596073813981414e-02 9.274960864416537e-01
7.903063527437267e-02 -2.055914455799385e-02 2.373074316075542e-01
-5.751796299167512e-02 2.516750057982791e-02 -2.971602812763651e-01
-3.758918967394879e-02 1.206583006948440e-02 -8.745667796943901e-02
-1.072198776009553e-02 3.765303112530889e-03 -1.523053754011645e-01
-2.596575763445252e-02 2.596575763456991e-02 1.010496996008110e+00
4.115340294309167e-02 -4.115340294302323e-02 1.952286654229280e-01
-4.863324496775920e-02 4.863324496777949e-02 -2.368085669367340e-01
-2.885361004007225e-02 2.885361004009755e-02 -1.321847592143925e-01
-9.715006185084991e-03 9.715006185150563e-03 -1.410082080707458e-01
-8.949796019464851e-02 2.053240332176142e-01 1.019152783845775e+00
9.058148652778554e-03 1.818181019367593e-02 1.021342843018324e-01
-3.341107101710582e-02 7.835734256232509e-02 -1.658192929228512e-01
-1.551769202973477e-02 3.786456217471823e-02 -1.927218213558062e-01
-7.751017236568280e-03 1.309067370569360e-02 -1.270170512798661e-01
6.751688256292233e-02 1.759465163949376e-01 5.031641087402212e-01
2.287497361052162e-02 8.183068307414498e-02 1.591621722277037e-02
-1.041509612970600e-03 8.294862897087973e-02 -1.772579345021054e-01
-6.561071548294145e-04 3.010113810027338e-02 -2.494939554408088e-01
-5.162780416206986e-03 1.059794590254260e-02 -1.194358590869928e-01
6.700258266863414e-02 -4.337670783344669e-02 4.607456941377167e-01
3.707245813304390e-02 3.289027298825841e-02 2.363936923236497e-02
2.235598723467733e-02 2.848255616532092e-02 -2.156804207009086e-01
7.290553526262248e-03 8.875387984746297e-03 -2.756171218696042e-01
-3.613960522698539e-03 3.455113155797411e-03 -1.169247555790331e-01
2.246553744539133e-02 7.566696224544026e-02 4.320918598237247e-01
1.276312240397481e-02 -3.873643445031490e-02 1.429990337898406e-02
8.230980520801599e-03 -3.759239051713523e-02 -2.243973062303828e-01
2.687762325201448e-03 -1.148553784712629e-02 -2.885441529955315e-01
-1.429204591917527e-03 -4.030779750037049e-03 -1.246669530841018e-01
2.871316449926438e-02 -2.299381006980832e-01 4.797133889390984e-01
5.151436621609376e-03 -9.486542644828969e-02 -8.077173475808871e-03
-1.876097652163287e-03 -1.074898101205018e-01 -1.782104100577548e-01
-3.749228850884447e-04 -3.904121110426759e-02 -2.519369495096674e-01
-2.055022146134868e-03 -1.225793162709501e-02 -1.268131817181661e-01
-3.188561733055362e-02 -2.485265330915229e-01 1.158865163232648e+00
1.444107565140108e-03 -2.439528462365250e-03 1.087420259735618e-01
-1.691230626796589e-02 -9.766695370686262e-02 -1.785570775751933e-01
-6.429358208639793e-03 -4.910733373369848e-02 -1.726430274308333e-01
-3.057046156616883e-03 -1.483845552900411e-02 -1.351896632892338e-01
-5.596073813988516e-02 3.691954409765708e-02 9.274960864415077e-01
2.055914455802451e-02 7.903063527443492e-02 2.373074316073345e-01
-2.516750057962464e-02 -5.751796299167174e-02 -2.971602812765426e-01
-1.206583006937369e-02 -3.758918967388593e-02 -8.745667796949319e-02
-3.765303112611373e-03 -1.072198775997807e-02 -1.523053754009762e-01
-5.901281036712394e-02 -5.901281036729158e-02 6.327638971477760e-01
4.184338311584293e-02 4.184338311574040e-02 2.953478532420473e-01
-3.030442284607373e-02 -3.030442284607881e-02 -3.977353180478256e-01
-1.583917957947113e-02 -1.583917957928744e-02 -2.426319724850046e-02
-4.102570108512671e-03 -4.102570108387683e-03 -1.665363681932597e-01
-5.901281036707354e-02 5.901281036712210e-02 6.327638971477499e-01
4.184338311584465e-02 -4.184338311573261e-02 2.953478532421878e-01
-3.030442284606190e-02 3.030442284635354e-02 -3.977353180476759e-01
-1.583917957944640e-02 1.583917957965041e-02 -2.426319724854653e-02
-4.102570108439793e-03 4.102570108567204e-03 -1.665363681933396e-01
-5.596073813986857e-02 -3.691954409769944e-02 9.274960864416576e-01
2.055914455806744e-02 -7.903063527431771e-02 2.373074316076476e-01
-2.516750057960406e-02 5.751796299164571e-02 -2.971602812763794e-01
-1.206583006941721e-02 3.758918967388869e-02 -8.745667796952294e-02
-3.765303112538192e-03 1.072198776005798e-02 -1.523053754011201e-01
-3.188561733066352e-02 2.485265330917757e-01 1.158865163232955e+00
1.444107565089942e-03 2.439528462505012e-03 1.087420259736875e-01
-1.691230626799816e-02 9.766695370678853e-02 -1.785570775751631e-01
-6.429358208687737e-03 4.910733373367682e-02 -1.726430274307111e-01
-3.057046156609814e-03 1.483845552909394e-02 -1.351896632892693e-01
2.871316449901389e-02 2.299381006981384e-01 4.797133889393013e-01
5.151436621425597e-03 9.486542644817977e-02 -8.077173475834082e-03
-1.876097652350982e-03 1.074898101204591e-01 -1.782104100577257e-01
-3.749228851761972e-04 3.904121110411875e-02 -2.519369495095574e-01
-2.055022146174232e-03 1.225793162686711e-02 -1.268131817181875e-01
2.246553744527807e-02 -7.566696224554674e-02 4.320918598237445e-01
1.276312240381922e-02 3.873643445016180e-02 1.429990337898589e-02
8.230980520659015e-03 3.759239051701920e-02 -2.243973062303552e-01
2.687762325096574e-03 1.148553784693588e-02 -2.885441529955796e-01
-1.429204591979916e-03 4.030779749918211e-03 -1.246669530842031e-01
-2.246553744541840e-02 7.566696224548587e-02 4.320918598238124e-01
-1.276312240379193e-02 -3.873643445023987e-02 1.429990337912558e-02
-8.230980520433159e-03 -3.759239051713542e-02 -2.243973062303160e-01
-2.687762324758664e-03 -1.148553784723249e-02 -2.885441529955034e-01
1.429204592281933e-03 -4.030779750178950e-03 -1.246669530840716e-01
-2.871316449928242e-02 -2.299381006981051e-01 4.797133889391071e-01
-5.151436621500382e-03 -9.486542644840314e-02 -8.077173475729059e-03
1.876097652348273e-03 -1.074898101206523e-01 -1.782104100577927e-01
3.749228852487709e-04 -3.904121110445762e-02 -2.519369495096658e-01
2.055022146310296e-03 -1.225793162722225e-02 -1.268131817181484e-01
3.188561733046660e-02 -2.485265330915509e-01 1.158865163232621e+00
-1.444107565117389e-03 -2.439528462376332e-03 1.087420259736182e-01
1.691230626802490e-02 -9.766695370685863e-02 -1.785570775752155e-01
6.429358208638573e-03 -4.910733373369069e-02 -1.726430274308620e-01
3.057046156618866e-03 -1.483845552905167e-02 -1.351896632892231e-01
5.596073813980701e-02 3.691954409767066e-02 9.274960864415402e-01
-2.055914455794749e-02 7.903063527449233e-02 2.373074316074263e-01
2.516750057980014e-02 -5.751796299157602e-02 -2.971602812765589e-01
1.206583006945620e-02 -3.758918967382700e-02 -8.745667796955692e-02
3.765303112542438e-03 -1.072198775999070e-02 -1.523053754010384e-01
5.901281036710919e-02 -5.901281036722288e-02 6.327638971478100e-01
-4.184338311571831e-02 4.184338311577086e-02 2.953478532421547e-01
3.030442284637868e-02 -3.030442284603811e-02 -3.977353180478266e-01
1.583917957964288e-02 -1.583917957925151e-02 -2.426319724859727e-02
4.102570108525133e-03 -4.102570108296981e-03 -1.665363681932686e-01
5.901281036708722e-02 5.901281036710104e-02 6.327638971477823e-01
-4.184338311571409e-02 -4.184338311573094e-02 2.953478532422520e-01
3.030442284628924e-02 3.030442284627168e-02 -3.977353180477164e-01
1.583917957956599e-02 1.583917957956783e-02 -2.426319724854342e-02
4.102570108549263e-03 4.102570108555696e-03 -1.665363681932739e-01
5.596073813979852e-02 -3.691954409784263e-02 9.274960864417303e-01
-2.055914455800617e-02 -7.903063527448305e-02 2.373074316077228e-01
2.516750057968320e-02 5.751796299155640e-02 -2.971602812764800e-01
1.206583006934956e-02 3.758918967376421e-02 -8.745667796954160e-02
3.765303112543610e-03 1.072198775989863e-02 -1.523053754010455e-01
3.188561733040521e-02 2.485265330917066e-01 1.158865163232936e+00
-1.444107565267447e-03 2.439528462358044e-03 1.087420259737920e-01
1.691230626801517e-02 9.766695370671230e-02 -1.785570775751363e-01
6.429358208593501e-03 4.910733373368888e-02 -1.726430274308225e-01
3.057046156494808e-03 1.483845552908280e-02 -1.351896632892817e-01
-2.871316449929344e-02 2.299381006982034e-01 4.797133889392477e-01
-5.151436621669538e-03 9.486542644824124e-02 -8.077173475789285e-03
1.876097652280294e-03 1.074898101204985e-01 -1.782104100576307e-01