<?xml version="1.0" ?> 
<!-- 
# vtk DataFile Version 3.0
-->
<VTKFile type="UnstructuredGrid" version="0.1" compressor="vtkZLibDataCompressor" byte_order="LittleEndian">
  <UnstructuredGrid>
    <FieldData>
      <DataArray type="Float64" Name="TIME" NumberOfTuples="1" format="ascii">
6.250000000000001e-02 
      </DataArray>
    </FieldData>

    <Piece NumberOfPoints="16" NumberOfCells="4" >
      <Points>
        <DataArray type="Float64" NumberOfComponents="3" format="ascii">
-5.000000000000000e-01 -5.000000000000000e-01 1.000000000000000e+00
0.000000000000000e+00 -5.000000000000000e-01 1.000000000000000e+00
0.000000000000000e+00 0.000000000000000e+00 1.000000000000000e+00
-5.000000000000000e-01 0.000000000000000e+00 1.000000000000000e+00
-5.000000000000000e-01 0.000000000000000e+00 1.000000000000000e+00
0.000000000000000e+00 0.000000000000000e+00 1.000000000000000e+00
0.000000000000000e+00 5.000000000000000e-01 1.000000000000000e+00
-5.000000000000000e-01 5.000000000000000e-01 1.000000000000000e+00
0.000000000000000e+00 -5.000000000000000e-01 1.000000000000000e+00
5.000000000000000e-01 -5.000000000000000e-01 1.000000000000000e+00
5.000000000000000e-01 0.000000000000000e+00 1.000000000000000e+00
0.000000000000000e+00 0.000000000000000e+00 1.000000000000000e+00
0.000000000000000e+00 0.000000000000000e+00 1.000000000000000e+00
5.000000000000000e-01 0.000000000000000e+00 1.000000000000000e+00
5.000000000000000e-01 5.000000000000000e-01 1.000000000000000e+00
0.000000000000000e+00 5.000000000000000e-01 1.000000000000000e+00
        </DataArray>
      </Points>

      <Cells>
        <DataArray type="Int32" Name="connectivity" format="ascii">
0 1 2 3 4 5 6 7 8 9 10 11 12 13 14 15 
        </DataArray>
        <DataArray type="Int32" Name="offsets" format="ascii">
4 8 12 16 
        </DataArray>
        <DataArray type="UInt8" Name="types" format="ascii">
9 9 9 9 
        </DataArray>
      </Cells>

  <PointData>
        <DataArray type="Float64" Name="disp" NumberOfComponents="3" format="ascii">
0.000000000000000e+00 0.000000000000000e+00 -1.020944368284470e-03
0.000000000000000e+00 0.000000000000000e+00 -9.711278060084029e-04
-1.588862419091286e-18 -4.336744933214658e-18 -1.018831047859206e-03
0.000000000000000e+00 0.000000000000000e+00 -9.711278060084354e-04
0.000000000000000e+00 0.000000000000000e+00 -9.711278060084354e-04
-1.588862419091286e-18 -4.336744933214658e-18 -1.018831047859206e-03
0.000000000000000e+00 0.000000000000000e+00 -9.711278060084192e-04
0.000000000000000e+00 0.000000000000000e+00 -1.020944368284464e-03
0.000000000000000e+00 0.000000000000000e+00 -9.711278060084029e-04
0.000000000000000e+00 0.000000000000000e+00 -1.020944368284488e-03
0.000000000000000e+00 0.000000000000000e+00 -9.711278060084245e-04
-1.588862419091286e-18 -4.336744933214658e-18 -1.018831047859206e-03
-1.588862419091286e-18 -4.336744933214658e-18 -1.018831047859206e-03
0.000000000000000e+00 0.000000000000000e+00 -9.711278060084245e-04
0.000000000000000e+00 0.000000000000000e+00 -1.020944368284493e-03
0.000000000000000e+00 0.000000000000000e+00 -9.711278060084192e-04
        </DataArray>
        <DataArray type="Float64" Name="owner" format="ascii">
0.000000000000000e+00
0.000000000000000e+00
0.000000000000000e+00
0.000000000000000e+00
0.000000000000000e+00
0.000000000000000e+00
0.000000000000000e+00
0.000000000000000e+00
0.000000000000000e+00
0.000000000000000e+00
0.000000000000000e+00
0.000000000000000e+00
0.000000000000000e+00
0.000000000000000e+00
0.000000000000000e+00
0.000000000000000e+00
        </DataArray>
  </PointData>
  <CellData>
        <DataArray type="Float64" Name="id" format="ascii">
0.000000000000000e+00
1.000000000000000e+00
2.000000000000000e+00
3.000000000000000e+00
        </DataArray>
        <DataArray type="Float64" Name="owner" format="ascii">
0.000000000000000e+00
0.000000000000000e+00
0.000000000000000e+00
0.000000000000000e+00
        </DataArray>
      </CellData>

    </Piece>
  </UnstructuredGrid>
</VTKFile>
