<?xml version="1.0" ?> 
<!-- 
# vtk DataFile Version 3.0
-->
<VTKFile type="UnstructuredGrid" version="0.1" compressor="vtkZLibDataCompressor" byte_order="LittleEndian">
  <UnstructuredGrid>
    <FieldData>
      <DataArray type="Float64" Name="TIME" NumberOfTuples="1" format="ascii">
1.875000000000001e-01 
      </DataArray>
    </FieldData>

    <Piece NumberOfPoints="300" NumberOfCells="0" >
      <Points>
        <DataArray type="Float64" NumberOfComponents="3" format="ascii">
-4.499688562906319e-01 -4.499688562906319e-01 1.976562500000000e+00
-4.499779504157833e-01 -4.499779504157834e-01 1.976562500000000e+00
-4.499615658911219e-01 -3.499180995426402e-01 1.976562500000000e+00
-4.499743498312246e-01 -3.499419749643336e-01 1.976562500000000e+00
-4.499507248177835e-01 -2.498799227171183e-01 1.976562500000000e+00
-4.499674642179056e-01 -2.499198309650428e-01 1.976562500000000e+00
-3.499180995426401e-01 -4.499615658911219e-01 1.976562500000000e+00
-3.499419749643335e-01 -4.499743498312246e-01 1.976562500000000e+00
-3.499007979195772e-01 -3.499007979195772e-01 1.976562500000000e+00
-3.499310684291148e-01 -3.499310684291148e-01 1.976562500000000e+00
-3.498955589651004e-01 -2.498473763078790e-01 1.976562500000000e+00
-3.499104431719265e-01 -2.498965552585914e-01 1.976562500000000e+00
-2.498799227171183e-01 -4.499507248177835e-01 1.976562500000000e+00
-2.499198309650427e-01 -4.499674642179055e-01 1.976562500000000e+00
-2.498473763078790e-01 -3.498955589651003e-01 1.976562500000000e+00
-2.498965552585913e-01 -3.499104431719264e-01 1.976562500000000e+00
-2.498336364451865e-01 -2.498336364451865e-01 1.976562500000000e+00
-2.498534791653713e-01 -2.498534791653714e-01 1.976562500000000e+00
-1.498853889889099e-01 -4.499250502720189e-01 1.976562500000000e+00
-1.499272487915983e-01 -4.499545509864025e-01 1.976562500000000e+00
-1.498386512833132e-01 -3.498499019713657e-01 1.976562500000000e+00
-1.499010687662317e-01 -3.498711361536206e-01 1.976562500000000e+00
-1.497975254342960e-01 -2.497311185589850e-01 1.976562500000000e+00
-1.498511737873704e-01 -2.497776013373302e-01 1.976562500000000e+00
-4.995339346296185e-02 -4.499048967541635e-01 1.976562500000000e+00
-4.997144349902397e-02 -4.499456356633195e-01 1.976562500000000e+00
-4.993375725116894e-02 -3.498202046491192e-01 1.976562500000000e+00
-4.995988651545108e-02 -3.498430861351643e-01 1.976562500000000e+00
-4.992929832933507e-02 -2.496750889771888e-01 1.976562500000000e+00
-4.993753865365044e-02 -2.497230763187451e-01 1.976562500000000e+00
2.499611418011524e-01 -3.499684697579188e-01 1.976562500000000e+00
2.499556744155972e-01 -2.499556744155971e-01 1.976562500000000e+00
-1.499408731048232e-01 4.997959063772658e-02 1.976562500000000e+00
-1.499476285888101e-01 1.499476285888101e-01 1.976562500000000e+00
3.499740923845155e-01 -4.499890419438123e-01 1.976562500000000e+00
3.499715713609801e-01 -3.499715713609800e-01 1.976562500000000e+00
-4.997691163856377e-02 4.997691163856385e-02 1.976562500000000e+00
-4.997959063772656e-02 1.499408731048233e-01 1.976562500000000e+00
3.499684697579188e-01 -2.499611418011524e-01 1.976562500000000e+00
4.499901973292820e-01 -4.499901973292820e-01 1.976562500000000e+00
4.499890419438122e-01 -3.499740923845155e-01 1.976562500000000e+00
4.499875070111619e-01 -2.499652045419088e-01 1.976562500000000e+00
2.497311185589850e-01 1.497975254342960e-01 1.976562500000000e+00
2.497776013373302e-01 1.498511737873706e-01 1.976562500000000e+00
4.998385106159253e-02 2.499393344742613e-01 1.976562500000000e+00
-4.499250502720190e-01 -1.498853889889101e-01 1.976562500000000e+00
-4.499545509864026e-01 -1.499272487915984e-01 1.976562500000000e+00
-4.499048967541635e-01 -4.995339346296185e-02 1.976562500000000e+00
-4.499456356633192e-01 -4.997144349902391e-02 1.976562500000000e+00
4.998624552758379e-02 3.499586953262204e-01 1.976562500000000e+00
2.499393344742613e-01 4.998385106159253e-02 1.976562500000000e+00
2.499456815295146e-01 1.499583142551049e-01 1.976562500000000e+00
3.498202046491193e-01 4.993375725116891e-02 1.976562500000000e+00
-3.498499019713656e-01 -1.498386512833132e-01 1.976562500000000e+00
-3.498711361536206e-01 -1.499010687662318e-01 1.976562500000000e+00
-3.498202046491192e-01 -4.993375725116889e-02 1.976562500000000e+00
-3.498430861351641e-01 -4.995988651545100e-02 1.976562500000000e+00
3.498430861351641e-01 4.995988651545114e-02 1.976562500000000e+00
-4.499875070111619e-01 2.499652045419089e-01 1.976562500000000e+00
-4.499890419438123e-01 3.499740923845154e-01 1.976562500000000e+00
-4.499901973292820e-01 4.499901973292820e-01 1.976562500000000e+00
-2.497311185589849e-01 -1.497975254342959e-01 1.976562500000000e+00
-2.497776013373301e-01 -1.498511737873705e-01 1.976562500000000e+00
-2.496750889771888e-01 -4.992929832933499e-02 1.976562500000000e+00
-2.497230763187450e-01 -4.993753865365047e-02 1.976562500000000e+00
-3.499684697579188e-01 2.499611418011524e-01 1.976562500000000e+00
-3.499715713609801e-01 3.499715713609802e-01 1.976562500000000e+00
-3.499740923845154e-01 4.499890419438123e-01 1.976562500000000e+00
-2.499556744155972e-01 2.499556744155973e-01 1.976562500000000e+00
-1.496523998466831e-01 -1.496523998466831e-01 1.976562500000000e+00
-1.497653521723647e-01 -1.497653521723648e-01 1.976562500000000e+00
-1.495677301290551e-01 -4.988863658162757e-02 1.976562500000000e+00
-1.497033109543322e-01 -4.989993101078785e-02 1.976562500000000e+00
-2.499611418011523e-01 3.499684697579190e-01 1.976562500000000e+00
-2.499652045419088e-01 4.499875070111621e-01 1.976562500000000e+00
-1.499583142551047e-01 2.499456815295145e-01 1.976562500000000e+00
-1.499646499546106e-01 3.499624528457088e-01 1.976562500000000e+00
-4.988863658162751e-02 -1.495677301290551e-01 1.976562500000000e+00
-4.989993101078776e-02 -1.497033109543323e-01 1.976562500000000e+00
-4.987137412230652e-02 -4.987137412230647e-02 1.976562500000000e+00
-4.987249519325247e-02 -4.987249519325247e-02 1.976562500000000e+00
-1.499691541860567e-01 4.499849554982375e-01 1.976562500000000e+00
-4.998385106159239e-02 2.499393344742613e-01 1.976562500000000e+00
-4.998624552758374e-02 3.499586953262205e-01 1.976562500000000e+00
-4.998792430809379e-02 4.499833202687027e-01 1.976562500000000e+00
3.498499019713656e-01 1.498386512833132e-01 1.976562500000000e+00
3.498711361536206e-01 1.499010687662318e-01 1.976562500000000e+00
4.998792430809390e-02 4.499833202687028e-01 1.976562500000000e+00
1.499583142551048e-01 2.499456815295146e-01 1.976562500000000e+00
4.997959063772667e-02 -1.499408731048233e-01 1.976562500000000e+00
4.997691163856383e-02 -4.997691163856374e-02 1.976562500000000e+00
3.499586953262203e-01 4.998624552758379e-02 1.976562500000000e+00
3.499624528457088e-01 1.499646499546106e-01 1.976562500000000e+00
1.499476285888101e-01 -1.499476285888101e-01 1.976562500000000e+00
1.499408731048233e-01 -4.997959063772656e-02 1.976562500000000e+00
4.499048967541637e-01 4.995339346296182e-02 1.976562500000000e+00
4.499456356633193e-01 4.997144349902405e-02 1.976562500000000e+00
2.499456815295145e-01 -1.499583142551047e-01 1.976562500000000e+00
2.499393344742613e-01 -4.998385106159239e-02 1.976562500000000e+00
4.499250502720190e-01 1.498853889889100e-01 1.976562500000000e+00
4.499545509864027e-01 1.499272487915985e-01 1.976562500000000e+00
3.499624528457089e-01 -1.499646499546105e-01 1.976562500000000e+00
3.499586953262203e-01 -4.998624552758368e-02 1.976562500000000e+00
1.499646499546106e-01 3.499624528457089e-01 1.976562500000000e+00
1.499691541860567e-01 4.499849554982376e-01 1.976562500000000e+00
4.499849554982378e-01 -1.499691541860566e-01 1.976562500000000e+00
4.499833202687027e-01 -4.998792430809373e-02 1.976562500000000e+00
4.499833202687026e-01 4.998792430809385e-02 1.976562500000000e+00
4.499849554982377e-01 1.499691541860567e-01 1.976562500000000e+00
-4.499901973292821e-01 -4.499901973292821e-01 1.976562500000000e+00
-4.499890419438123e-01 -3.499740923845155e-01 1.976562500000000e+00
-4.499875070111620e-01 -2.499652045419088e-01 1.976562500000000e+00
-3.499740923845154e-01 -4.499890419438122e-01 1.976562500000000e+00
-3.499715713609800e-01 -3.499715713609801e-01 1.976562500000000e+00
-3.499684697579188e-01 -2.499611418011523e-01 1.976562500000000e+00
-2.499652045419088e-01 -4.499875070111620e-01 1.976562500000000e+00
-2.499611418011523e-01 -3.499684697579187e-01 1.976562500000000e+00
-2.499556744155971e-01 -2.499556744155970e-01 1.976562500000000e+00
-1.499691541860567e-01 -4.499849554982376e-01 1.976562500000000e+00
-1.499646499546106e-01 -3.499624528457088e-01 1.976562500000000e+00
-1.499583142551047e-01 -2.499456815295145e-01 1.976562500000000e+00
-4.998792430809379e-02 -4.499833202687027e-01 1.976562500000000e+00
-4.998624552758374e-02 -3.499586953262201e-01 1.976562500000000e+00
-4.998385106159245e-02 -2.499393344742612e-01 1.976562500000000e+00
4.995339346296185e-02 -4.499048967541634e-01 1.976562500000000e+00
4.997144349902399e-02 -4.499456356633194e-01 1.976562500000000e+00
4.993375725116894e-02 -3.498202046491192e-01 1.976562500000000e+00
4.995988651545097e-02 -3.498430861351642e-01 1.976562500000000e+00
4.992929832933507e-02 -2.496750889771889e-01 1.976562500000000e+00
4.993753865365047e-02 -2.497230763187450e-01 1.976562500000000e+00
1.498853889889099e-01 -4.499250502720189e-01 1.976562500000000e+00
1.499272487915985e-01 -4.499545509864024e-01 1.976562500000000e+00
1.498386512833132e-01 -3.498499019713657e-01 1.976562500000000e+00
-4.499849554982376e-01 -1.499691541860566e-01 1.976562500000000e+00
-4.499833202687027e-01 -4.998792430809379e-02 1.976562500000000e+00
1.499010687662318e-01 -3.498711361536206e-01 1.976562500000000e+00
1.497975254342959e-01 -2.497311185589849e-01 1.976562500000000e+00
-3.499624528457088e-01 -1.499646499546105e-01 1.976562500000000e+00
-3.499586953262204e-01 -4.998624552758371e-02 1.976562500000000e+00
1.498511737873705e-01 -2.497776013373302e-01 1.976562500000000e+00
2.498799227171182e-01 -4.499507248177835e-01 1.976562500000000e+00
[...]
  <PointData>
        <DataArray type="Float64" Name="contact force" NumberOfComponents="3" format="ascii">
4.194306852810124e-15 4.194306852820591e-15 3.101489071938126e-11
1.001749827704009e-07 1.001749827709107e-07 5.794011131023292e-04
1.042099558732227e-14 9.077128958034597e-15 2.969069657633687e-11
1.684282892226356e-07 2.445752409730405e-07 5.771296747421145e-04
1.867691382540538e-14 1.589999345313164e-14 2.787986180479212e-11
3.062807346824813e-07 3.779458034860532e-07 5.742084768319343e-04
9.077128958017497e-15 1.042099558734011e-14 2.969069657634984e-11
2.445752409719914e-07 1.684282892227870e-07 5.771296747421000e-04
1.907749843300069e-14 1.907749843302268e-14 2.780998932911841e-11
4.287243916328180e-07 4.287243916342020e-07 5.741458369238169e-04
2.847154977199947e-14 2.972667796316052e-14 2.624809979330901e-11
7.571321904177376e-07 6.932315150306491e-07 5.707622278951940e-04
1.589999345311425e-14 1.867691382540383e-14 2.787986180479310e-11
3.779458034856601e-07 3.062807346826298e-07 5.742084768319319e-04
2.972667796313307e-14 2.847154977201431e-14 2.624809979330969e-11
6.932315150298567e-07 7.571321904187421e-07 5.707622278952011e-04
4.906776763064332e-14 4.906776763067567e-14 2.734618200833579e-11
1.223670688748137e-06 1.223670688749444e-06 5.663671631018905e-04
1.571936248150428e-14 2.769236767629106e-14 2.472023252740646e-11
3.710570753691568e-07 5.018644252186630e-07 5.705226149479944e-04
2.701332667546789e-14 3.867757107052629e-14 2.130832272431598e-11
6.962202650473242e-07 1.219190830974212e-06 5.659816216106852e-04
3.967779519467919e-14 6.057013937489237e-14 1.880548722395648e-11
1.237493830569527e-06 1.960299954686713e-06 5.581855488908437e-04
5.355154073080852e-15 3.235149965657902e-14 2.267593740670940e-11
1.374798068345993e-07 6.385094270493528e-07 5.683966681319901e-04
8.446638815050291e-15 4.172936659742940e-14 1.833148655954985e-11
2.646935144308195e-07 1.531322810683919e-06 5.637120458092317e-04
1.003858225174252e-14 6.075989305101324e-14 1.477593007332990e-11
4.684921615445215e-07 2.450239674799276e-06 5.538986027998523e-04
-9.967162044382307e-06 1.040931894017004e-05 7.649079862532393e-03
-1.529329752815132e-05 1.529329752814863e-05 7.570127712510015e-03
2.633802437464088e-05 -8.159297827040847e-06 7.331850672323419e-03
2.152384691011844e-05 -2.152384691013260e-05 7.381758712287913e-03
-4.997330465888805e-06 2.800153511426480e-06 7.736514157255981e-03
-6.998666098959314e-06 6.998666098938734e-06 7.701462716200047e-03
1.004391190853794e-05 -1.004391190853245e-05 7.288042876788366e-03
8.159297827048172e-06 -2.633802437464255e-05 7.331850672323660e-03
-1.040931894019471e-05 9.967162044373050e-06 7.649079862532392e-03
-1.985271910466577e-06 1.985271910443304e-06 7.754219227321285e-03
-2.800153511439002e-06 4.997330465874791e-06 7.736514157256151e-03
-4.142008661498409e-06 7.007621923079917e-06 7.707985702222749e-03
-6.057013937491524e-14 -3.967779519468584e-14 1.880548722396644e-11
-1.960299954687144e-06 -1.237493830569162e-06 5.581855488908893e-04
-5.426865687008048e-06 -2.709062816069302e-05 7.438082782907723e-03
2.769236767630576e-14 1.571936248150895e-14 2.472023252741835e-11
5.018644252180589e-07 3.710570753691468e-07 5.705226149480046e-04
3.235149965658854e-14 5.355154073079615e-15 2.267593740672096e-11
6.385094270491191e-07 1.374798068347786e-07 5.683966681319921e-04
-3.479432095215827e-06 -1.761261306775604e-05 7.551558659429821e-03
-2.709062816070287e-05 -5.426865686992879e-06 7.438082782907802e-03
-2.236492976731824e-05 -1.446239961252765e-05 7.485180495005834e-03
-4.172936659743171e-14 -8.446638815042680e-15 1.833148655954961e-11
3.867757107052710e-14 2.701332667546384e-14 2.130832272431536e-11
1.219190830973921e-06 6.962202650471300e-07 5.659816216106803e-04
4.172936659740136e-14 8.446638815037546e-15 1.833148655953939e-11
1.531322810683513e-06 2.646935144310422e-07 5.637120458092232e-04
-1.531322810684043e-06 -2.646935144302346e-07 5.637120458092618e-04
4.142008661471213e-06 -7.007621923113095e-06 7.707985702222773e-03
2.800153511388319e-06 -4.997330465896225e-06 7.736514157256280e-03
1.985271910414626e-06 -1.985271910450619e-06 7.754219227320791e-03
6.057013937487306e-14 3.967779519468768e-14 1.880548722395712e-11
1.960299954686008e-06 1.237493830570088e-06 5.581855488908687e-04
6.075989305104122e-14 1.003858225173996e-14 1.477593007333800e-11
2.450239674799280e-06 4.684921615444948e-07 5.538986027998486e-04
1.040931894017340e-05 -9.967162044415070e-06 7.649079862531072e-03
6.998666098958329e-06 -6.998666098960804e-06 7.701462716200289e-03
4.997330465882885e-06 -2.800153511435585e-06 7.736514157256523e-03
1.529329752815398e-05 -1.529329752817561e-05 7.570127712510036e-03
1.822391924080551e-14 1.822391924080930e-14 4.678173321615459e-12
1.985039071966335e-06 1.985039071967374e-06 5.422596703218158e-04
6.394444994216490e-15 1.557124490662664e-15 1.276174799996685e-12
2.479339078552392e-06 7.489718749383514e-07 5.324791620330366e-04
9.967162044399071e-06 -1.040931894018817e-05 7.649079862531887e-03
7.007621923085791e-06 -4.142008661509545e-06 7.707985702222471e-03
1.446239961255011e-05 -2.236492976733403e-05 7.485180495005758e-03
9.254708942339226e-06 -1.479192281320512e-05 7.588674210023124e-03
1.557124490662490e-15 6.394444994217124e-15 1.276174799996752e-12
7.489718749380886e-07 2.479339078553079e-06 5.324791620330600e-04
6.868868407510464e-17 6.868868407512252e-17 4.525759498101783e-14
9.314276240258987e-07 9.314276240267825e-07 5.184934647437460e-04
6.470751547100060e-06 -5.783644876043451e-06 7.673199019856988e-03
5.426865687020812e-06 -2.709062816070451e-05 7.438082782907760e-03
3.479432095243734e-06 -1.761261306777196e-05 7.551558659429914e-03
2.472987568488346e-06 -6.812400536388908e-06 7.651145651909835e-03
-3.867757107053946e-14 -2.701332667544255e-14 2.130832272431700e-11
-1.219190830974613e-06 -6.962202650463557e-07 5.659816216107256e-04
-2.472987568435089e-06 -6.812400536373029e-06 7.651145651909416e-03
-1.446239961251052e-05 -2.236492976732251e-05 7.485180495004705e-03
-8.159297827047129e-06 2.633802437464001e-05 7.331850672324187e-03
-1.004391190853949e-05 1.004391190855152e-05 7.288042876788624e-03
-1.761261306775391e-05 -3.479432095206089e-06 7.551558659430248e-03
-1.479192281319209e-05 -9.254708942324631e-06 7.588674210023218e-03
-2.152384691011546e-05 2.152384691012293e-05 7.381758712288937e-03
-2.633802437462871e-05 8.159297827067178e-06 7.331850672324344e-03
-3.235149965653774e-14 -5.355154073082022e-15 2.267593740669878e-11
-6.385094270481065e-07 -1.374798068344217e-07 5.683966681319767e-04
-2.236492976732487e-05 1.446239961255518e-05 7.485180495005717e-03
-2.709062816070026e-05 5.426865687022584e-06 7.438082782907832e-03
-2.769236767630559e-14 -1.571936248150160e-14 2.472023252741882e-11
-5.018644252179512e-07 -3.710570753690197e-07 5.705226149480096e-04
-1.479192281319697e-05 9.254708942349112e-06 7.588674210022889e-03
-1.761261306775672e-05 3.479432095235846e-06 7.551558659430145e-03
-9.254708942332156e-06 -1.479192281319691e-05 7.588674210023745e-03
-6.470751547099998e-06 -5.783644876021992e-06 7.673199019857707e-03
-5.783644876005754e-06 6.470751547117420e-06 7.673199019857008e-03
-6.812400536364905e-06 2.472987568474369e-06 7.651145651909302e-03
-6.812400536366819e-06 -2.472987568443846e-06 7.651145651909494e-03
-5.783644876033013e-06 -6.470751547102877e-06 7.673199019857423e-03
1.985271910412849e-06 1.985271910448089e-06 7.754219227320772e-03
2.800153511412120e-06 4.997330465901593e-06 7.736514157256175e-03
4.142008661508686e-06 7.007621923096022e-06 7.707985702222137e-03
4.997330465872221e-06 2.800153511424901e-06 7.736514157256267e-03
6.998666098938856e-06 6.998666098989368e-06 7.701462716199683e-03
1.040931894016367e-05 9.967162044406030e-06 7.649079862531073e-03
7.007621923096217e-06 4.142008661496021e-06 7.707985702222074e-03
9.967162044395124e-06 1.040931894020894e-05 7.649079862530946e-03
1.529329752814978e-05 1.529329752817159e-05 7.570127712509945e-03
6.470751547107746e-06 5.783644876042871e-06 7.673199019857339e-03
9.254708942349270e-06 1.479192281320508e-05 7.588674210022738e-03
1.446239961253497e-05 2.236492976733270e-05 7.485180495005392e-03
2.472987568473364e-06 6.812400536380070e-06 7.651145651909084e-03
3.479432095223478e-06 1.761261306776611e-05 7.551558659429668e-03
5.426865687013139e-06 2.709062816069101e-05 7.438082782907188e-03
-5.355154073076275e-15 3.235149965657660e-14 2.267593740671045e-11
-1.374798068339209e-07 6.385094270489208e-07 5.683966681319965e-04
-8.446638815042136e-15 4.172936659740700e-14 1.833148655954013e-11
-2.646935144303990e-07 1.531322810684059e-06 5.637120458092387e-04
-1.003858225174629e-14 6.075989305104281e-14 1.477593007333780e-11
-4.684921615437650e-07 2.450239674799454e-06 5.538986027998478e-04
-1.571936248150028e-14 2.769236767630563e-14 2.472023252741799e-11
-3.710570753684614e-07 5.018644252181035e-07 5.705226149480238e-04
-2.701332667544517e-14 3.867757107050822e-14 2.130832272430567e-11
5.783644876044566e-06 6.470751547103774e-06 7.673199019857626e-03
6.812400536367420e-06 2.472987568466479e-06 7.651145651909962e-03
-6.962202650468126e-07 1.219190830974024e-06 5.659816216107167e-04
-3.967779519467556e-14 6.057013937487787e-14 1.880548722395712e-11
1.479192281317853e-05 9.254708942334523e-06 7.588674210022384e-03
1.761261306774601e-05 3.479432095230020e-06 7.551558659429319e-03
-1.237493830569908e-06 1.960299954686536e-06 5.581855488908755e-04
-1.589999345310572e-14 1.867691382540170e-14 2.787986180479291e-11
2.236492976731711e-05 1.446239961253586e-05 7.485180495005617e-03
2.709062816069021e-05 5.426865687017195e-06 7.438082782907524e-03
-3.779458034853499e-07 3.062807346820208e-07 5.742084768319624e-04
-2.972667796310279e-14 2.847154977198216e-14 2.624809979328569e-11
2.152384691011471e-05 2.152384691012229e-05 7.381758712289009e-03
2.633802437464336e-05 8.159297827058237e-06 7.331850672323708e-03
-6.932315150293217e-07 7.571321904179722e-07 5.707622278952370e-04
-4.906776763062013e-14 4.906776763063731e-14 2.734618200832292e-11
8.159297827049638e-06 2.633802437464686e-05 7.331850672324018e-03
1.004391190853839e-05 1.004391190855043e-05 7.288042876787871e-03
-1.223670688748396e-06 1.223670688748727e-06 5.663671631018968e-04
-9.077128958011913e-15 1.042099558732118e-14 2.969069657633566e-11
-2.445752409725360e-07 1.684282892228212e-07 5.771296747420964e-04
-1.907749843299308e-14 1.907749843299647e-14 2.780998932910585e-11
-4.287243916333934e-07 4.287243916332097e-07 5.741458369238308e-04
-2.847154977202179e-14 2.972667796315430e-14 2.624809979332339e-11
-7.571321904182581e-07 6.932315150295647e-07 5.707622278952363e-04
-4.194306852842496e-15 4.194306852820022e-15 3.101489071939484e-11
-1.001749827714127e-07 1.001749827708579e-07 5.794011131023453e-04
-1.042099558734438e-14 9.077128958022283e-15 2.969069657632151e-11
-1.684282892232537e-07 2.445752409724303e-07 5.771296747421177e-04
-1.867691382540448e-14 1.589999345312263e-14 2.787986180479338e-11
-3.062807346821238e-07 3.779458034856655e-07 5.742084768319408e-04
-1.529329752814236e-05 -1.529329752816387e-05 7.570127712510597e-03
-9.967162044371006e-06 -1.040931894019451e-05 7.649079862532087e-03
-7.007621923080777e-06 -4.142008661497911e-06 7.707985702222818e-03
-1.040931894019575e-05 -9.967162044392835e-06 7.649079862531846e-03
-6.998666098956040e-06 -6.998666098966045e-06 7.701462716200059e-03
-4.997330465884573e-06 -2.800153511435892e-06 7.736514157256904e-03
-4.142008661513359e-06 -7.007621923097916e-06 7.707985702222963e-03
-1.004391190852582e-05 -1.004391190853132e-05 7.288042876788527e-03
-8.159297827040640e-06 -2.633802437464786e-05 7.331850672324696e-03
-2.800153511459808e-06 -4.997330465892540e-06 7.736514157256169e-03
-1.985271910469841e-06 -1.985271910454013e-06 7.754219227321232e-03
-1.003858225172694e-14 -6.075989305097964e-14 1.477593007332153e-11
-4.684921615438298e-07 -2.450239674799854e-06 5.538986027998555e-04
-8.446638815036720e-15 -4.172936659744113e-14 1.833148655954997e-11
-2.646935144299287e-07 -1.531322810684717e-06 5.637120458092734e-04
-5.355154073074407e-15 -3.235149965657877e-14 2.267593740671001e-11
-1.374798068338682e-07 -6.385094270493925e-07 5.683966681319935e-04
-3.967779519471275e-14 -6.057013937494513e-14 1.880548722397620e-11
3.235149965659216e-14 -5.355154073088221e-15 2.267593740672042e-11
6.385094270489455e-07 -1.374798068346108e-07 5.683966681319787e-04
2.769236767630090e-14 -1.571936248150949e-14 2.472023252741801e-11
5.018644252177444e-07 -3.710570753696039e-07 5.705226149480130e-04
-1.557124490661761e-15 6.394444994210365e-15 1.276174799995481e-12
-7.489718749378884e-07 2.479339078552642e-06 5.324791620330863e-04
-6.868868407497526e-17 6.868868407498432e-17 4.525759498091586e-14
-9.314276240262506e-07 9.314276240269629e-07 5.184934647437552e-04
4.172936659739996e-14 -8.446638815044534e-15 1.833148655953928e-11
1.531322810683679e-06 -2.646935144308243e-07 5.637120458092201e-04
3.867757107052212e-14 -2.701332667546518e-14 2.130832272431539e-11
1.219190830974088e-06 -6.962202650479021e-07 5.659816216106955e-04
-1.237493830569338e-06 -1.960299954686826e-06 5.581855488908641e-04
-2.701332667546242e-14 -3.867757107056913e-14 2.130832272432798e-11
-6.962202650465522e-07 -1.219190830974965e-06 5.659816216107067e-04
-1.571936248150774e-14 -2.769236767633348e-14 2.472023252743109e-11
6.075989305101175e-14 -1.003858225174406e-14 1.477593007332958e-11
2.450239674799420e-06 -4.684921615442038e-07 5.538986027998543e-04
6.057013937491096e-14 -3.967779519470396e-14 1.880548722396581e-11
1.960299954686610e-06 -1.237493830570591e-06 5.581855488908608e-04
-1.822391924081752e-14 1.822391924081950e-14 4.678173321618780e-12
-1.985039071966603e-06 1.985039071966840e-06 5.422596703217966e-04
-6.394444994209905e-15 1.557124490661862e-15 1.276174799995528e-12
-2.479339078552358e-06 7.489718749386782e-07 5.324791620330473e-04
6.394444994217081e-15 -1.557124490663164e-15 1.276174799996669e-12
2.479339078552565e-06 -7.489718749379163e-07 5.324791620330401e-04
1.822391924083467e-14 -1.822391924083241e-14 4.678173321621978e-12
1.985039071967002e-06 -1.985039071967224e-06 5.422596703217927e-04
-3.710570753685466e-07 -5.018644252184519e-07 5.705226149480135e-04
-4.906776763063477e-14 -4.906776763062897e-14 2.734618200832339e-11
-1.223670688748729e-06 -1.223670688748847e-06 5.663671631019062e-04
-2.972667796312676e-14 -2.847154977203272e-14 2.624809979331065e-11
6.868868407512336e-17 -6.868868407511089e-17 4.525759498101792e-14
9.314276240260611e-07 -9.314276240258760e-07 5.184934647437391e-04
1.557124490663114e-15 -6.394444994216576e-15 1.276174799996712e-12
7.489718749381092e-07 -2.479339078552497e-06 5.324791620330389e-04
-6.057013937490171e-14 3.967779519470315e-14 1.880548722396591e-11
-1.960299954686515e-06 1.237493830570236e-06 5.581855488908637e-04
-6.075989305100417e-14 1.003858225173783e-14 1.477593007333013e-11
-2.450239674799581e-06 4.684921615444476e-07 5.538986027998858e-04
-6.932315150294820e-07 -7.571321904189233e-07 5.707622278952281e-04
-1.589999345309878e-14 -1.867691382542608e-14 2.787986180479416e-11
-3.779458034851353e-07 -3.062807346828228e-07 5.742084768319501e-04
-2.847154977202773e-14 -2.972667796312779e-14 2.624809979331045e-11
-3.867757107055326e-14 2.701332667547728e-14 2.130832272432677e-11
-1.219190830974276e-06 6.962202650470384e-07 5.659816216107021e-04
-4.172936659743034e-14 8.446638815036492e-15 1.833148655954998e-11
-1.531322810683853e-06 2.646935144308112e-07 5.637120458092510e-04
-7.571321904189829e-07 -6.932315150295696e-07 5.707622278952343e-04
-1.907749843300148e-14 -1.907749843300326e-14 2.780998932910436e-11
-4.287243916338028e-07 -4.287243916335170e-07 5.741458369238001e-04
-9.077128958006632e-15 -1.042099558734660e-14 2.969069657632158e-11
-2.769236767629657e-14 1.571936248151333e-14 2.472023252741827e-11
-5.018644252174667e-07 3.710570753693774e-07 5.705226149480055e-04
1.867691382538267e-14 -1.589999345311216e-14 2.787986180478017e-11
3.062807346816637e-07 -3.779458034862202e-07 5.742084768319533e-04
1.042099558730844e-14 -9.077128958021887e-15 2.969069657632308e-11
1.684282892219011e-07 -2.445752409725501e-07 5.771296747420929e-04
4.194306852807157e-15 -4.194306852830834e-15 3.101489071938172e-11
1.001749827703447e-07 -1.001749827709751e-07 5.794011131023460e-04
2.847154977200359e-14 -2.972667796314800e-14 2.624809979330966e-11
7.571321904181280e-07 -6.932315150305924e-07 5.707622278952154e-04
1.907749843300479e-14 -1.907749843301464e-14 2.780998932911914e-11
4.287243916333830e-07 -4.287243916333431e-07 5.741458369238326e-04
9.077128958011534e-15 -1.042099558732960e-14 2.969069657633572e-11
2.445752409721738e-07 -1.684282892228974e-07 5.771296747420893e-04
4.906776763069183e-14 -4.906776763067628e-14 2.734618200834892e-11
1.223670688749188e-06 -1.223670688749131e-06 5.663671631018827e-04
2.972667796313627e-14 -2.847154977201021e-14 2.624809979329742e-11
6.932315150304035e-07 -7.571321904186268e-07 5.707622278952129e-04
1.589999345310777e-14 -1.867691382539792e-14 2.787986180478045e-11
3.779458034854366e-07 -3.062807346828255e-07 5.742084768319441e-04
3.967779519468548e-14 -6.057013937487423e-14 1.880548722395670e-11
1.237493830570329e-06 -1.960299954687015e-06 5.581855488908746e-04
2.701332667547187e-14 -3.867757107056690e-14 2.130832272432740e-11
6.962202650468902e-07 -1.219190830975119e-06 5.659816216107092e-04
1.571936248150023e-14 -2.769236767630091e-14 2.472023252740628e-11
3.710570753688482e-07 -5.018644252182740e-07 5.705226149479980e-04
1.003858225173270e-14 -6.075989305097921e-14 1.477593007332179e-11
4.684921615446068e-07 -2.450239674799782e-06 5.538986027998619e-04
8.446638815041065e-15 -4.172936659744242e-14 1.833148655955025e-11
2.646935144310932e-07 -1.531322810685007e-06 5.637120458092890e-04
5.355154073079449e-15 -3.235149965657515e-14 2.267593740670998e-11
1.374798068350296e-07 -6.385094270491287e-07 5.683966681319919e-04
-3.235149965656124e-14 5.355154073071837e-15 2.267593740670960e-11
-6.385094270481270e-07 1.374798068346084e-07 5.683966681319822e-04
-2.445752409726683e-07 -1.684282892236194e-07 5.771296747421048e-04
-6.868868407511871e-17 -6.868868407509869e-17 4.525759498102012e-14
-9.314276240259226e-07 -9.314276240255745e-07 5.184934647437342e-04
-1.557124490660701e-15 -6.394444994210292e-15 1.276174799995469e-12
-7.489718749373782e-07 -2.479339078552607e-06 5.324791620330556e-04
-1.867691382539801e-14 -1.589999345309084e-14 2.787986180476819e-11
-3.062807346827415e-07 -3.779458034856602e-07 5.742084768319611e-04
-1.042099558735834e-14 -9.077128958012213e-15 2.969069657632075e-11
-1.684282892238699e-07 -2.445752409725148e-07 5.771296747420808e-04
-6.394444994216745e-15 -1.557124490661843e-15 1.276174799996755e-12
-2.479339078552616e-06 -7.489718749369670e-07 5.324791620330536e-04
-1.822391924077879e-14 -1.822391924077795e-14 4.678173321608570e-12
-1.985039071966424e-06 -1.985039071966748e-06 5.422596703217765e-04
-4.194306852847778e-15 -4.194306852839801e-15 3.101489071939415e-11
-1.001749827716589e-07 -1.001749827713173e-07 5.794011131023450e-04
-2.633802437463069e-05 -8.159297827031830e-06 7.331850672323815e-03
-2.152384691009962e-05 -2.152384691012481e-05 7.381758712287999e-03
-6.075989305101548e-14 -1.003858225173368e-14 1.477593007332965e-11
-2.450239674800194e-06 -4.684921615434738e-07 5.538986027998586e-04
-2.472987568428988e-06 6.812400536362930e-06 7.651145651909290e-03
-3.479432095209323e-06 1.761261306775490e-05 7.551558659430183e-03
-5.426865687008061e-06 2.709062816069934e-05 7.438082782907370e-03
6.812400536363412e-06 -2.472987568444424e-06 7.651145651909368e-03
5.783644876012471e-06 -6.470751547110963e-06 7.673199019856853e-03
-6.470751547090375e-06 5.783644876023643e-06 7.673199019857588e-03
-9.254708942327472e-06 1.479192281316826e-05 7.588674210023064e-03
1.761261306774812e-05 -3.479432095213367e-06 7.551558659430033e-03
1.479192281318130e-05 -9.254708942357185e-06 7.588674210022521e-03