<?xml version="1.0" ?> 
<!-- 
# vtk DataFile Version 3.0
-->
<VTKFile type="UnstructuredGrid" version="0.1" compressor="vtkZLibDataCompressor" byte_order="LittleEndian">
  <UnstructuredGrid>
    <FieldData>
      <DataArray type="Float64" Name="TIME" NumberOfTuples="1" format="ascii">
6.250000000000001e-02 
      </DataArray>
    </FieldData>

    <Piece NumberOfPoints="300" NumberOfCells="0" >
      <Points>
        <DataArray type="Float64" NumberOfComponents="3" format="ascii">
-4.499930972070614e-01 -4.499930972070614e-01 1.992187500000000e+00
-4.499909615340086e-01 -3.499814765439888e-01 1.992187500000000e+00
-4.499871732831418e-01 -2.499758322744868e-01 1.992187500000000e+00
-3.499814765439888e-01 -4.499909615340087e-01 1.992187500000000e+00
-3.499755638661025e-01 -3.499755638661025e-01 1.992187500000000e+00
-3.499649520013978e-01 -2.499670348148182e-01 1.992187500000000e+00
-2.499758322744869e-01 -4.499871732831418e-01 1.992187500000000e+00
-2.499670348148182e-01 -3.499649520013978e-01 1.992187500000000e+00
-2.499506042248684e-01 -2.499506042248683e-01 1.992187500000000e+00
-1.499793362075950e-01 -4.499826255861886e-01 1.992187500000000e+00
-1.499710301071684e-01 -3.499517042565373e-01 1.992187500000000e+00
-1.499552703658468e-01 -2.499289760005069e-01 1.992187500000000e+00
-4.999189401598220e-02 -4.499796018318605e-01 1.992187500000000e+00
-4.998866725531734e-02 -3.499429778308528e-01 1.992187500000000e+00
-4.998249323330536e-02 -2.499145344912843e-01 1.992187500000000e+00
-4.499960106491601e-01 4.499960106491601e-01 1.992187500000000e+00
-4.499981982655925e-01 4.499981982655925e-01 1.992187500000000e+00
-3.499806215458193e-01 2.499818849667285e-01 1.992187500000000e+00
-3.499915462140174e-01 2.499920674459527e-01 1.992187500000000e+00
-3.499861251545178e-01 3.499861251545178e-01 1.992187500000000e+00
-3.499938413619629e-01 3.499938413619631e-01 1.992187500000000e+00
-4.499826255861886e-01 -1.499793362075950e-01 1.992187500000000e+00
-4.499796018318605e-01 -4.999189401598217e-02 1.992187500000000e+00
-3.499893191250362e-01 4.499948389685806e-01 1.992187500000000e+00
-3.499951906094289e-01 4.499977013144776e-01 1.992187500000000e+00
-3.499517042565373e-01 -1.499710301071684e-01 1.992187500000000e+00
-3.499429778308528e-01 -4.998866725531731e-02 1.992187500000000e+00
-2.499742452381409e-01 2.499742452381409e-01 1.992187500000000e+00
-2.499890136738549e-01 2.499890136738550e-01 1.992187500000000e+00
-2.499289760005069e-01 -1.499552703658468e-01 1.992187500000000e+00
-2.499145344912842e-01 -4.998249323330536e-02 1.992187500000000e+00
-2.499818849667285e-01 3.499806215458194e-01 1.992187500000000e+00
-2.499920674459526e-01 3.499915462140173e-01 1.992187500000000e+00
-1.499340490399122e-01 -1.499340490399122e-01 1.992187500000000e+00
-1.499197771059576e-01 -4.997398035775367e-02 1.992187500000000e+00
-2.499862369257093e-01 4.499928310228952e-01 1.992187500000000e+00
-2.499938536193284e-01 4.499968574053255e-01 1.992187500000000e+00
-4.997398035775363e-02 -1.499197771059576e-01 1.992187500000000e+00
-4.996829772681208e-02 -4.996829772681211e-02 1.992187500000000e+00
-1.499776638555769e-01 2.499654147324004e-01 1.992187500000000e+00
-1.499906735184801e-01 2.499856939862823e-01 1.992187500000000e+00
-1.499845387855800e-01 3.499744370349498e-01 1.992187500000000e+00
-1.499933234615592e-01 3.499890728001903e-01 1.992187500000000e+00
-1.499884019678956e-01 4.499906077819531e-01 1.992187500000000e+00
-1.499948655057428e-01 4.499959521430892e-01 1.992187500000000e+00
-4.999122929555350e-02 2.499596092528736e-01 1.992187500000000e+00
-4.999634708683864e-02 2.499835373642603e-01 1.992187500000000e+00
-4.999394207949207e-02 3.499703954598252e-01 1.992187500000000e+00
-4.499960106491601e-01 -4.499960106491601e-01 1.992187500000000e+00
-4.499981982655925e-01 -4.499981982655925e-01 1.992187500000000e+00
-4.499948389685805e-01 -3.499893191250363e-01 1.992187500000000e+00
-4.499977013144776e-01 -3.499951906094289e-01 1.992187500000000e+00
-4.499928310228951e-01 -2.499862369257093e-01 1.992187500000000e+00
-4.499968574053255e-01 -2.499938536193284e-01 1.992187500000000e+00
-3.499893191250362e-01 -4.499948389685805e-01 1.992187500000000e+00
-3.499951906094290e-01 -4.499977013144776e-01 1.992187500000000e+00
-3.499861251545177e-01 -3.499861251545177e-01 1.992187500000000e+00
-3.499938413619630e-01 -3.499938413619630e-01 1.992187500000000e+00
-3.499806215458193e-01 -2.499818849667285e-01 1.992187500000000e+00
-3.499915462140174e-01 -2.499920674459526e-01 1.992187500000000e+00
-2.499862369257093e-01 -4.499928310228951e-01 1.992187500000000e+00
-2.499938536193284e-01 -4.499968574053255e-01 1.992187500000000e+00
-2.499818849667285e-01 -3.499806215458193e-01 1.992187500000000e+00
-2.499920674459526e-01 -3.499915462140173e-01 1.992187500000000e+00
-2.499742452381409e-01 -2.499742452381408e-01 1.992187500000000e+00
-2.499890136738548e-01 -2.499890136738548e-01 1.992187500000000e+00
-1.499884019678956e-01 -4.499906077819530e-01 1.992187500000000e+00
-1.499948655057429e-01 -4.499959521430892e-01 1.992187500000000e+00
-1.499845387855800e-01 -3.499744370349498e-01 1.992187500000000e+00
-1.499933234615593e-01 -3.499890728001901e-01 1.992187500000000e+00
-1.499776638555769e-01 -2.499654147324003e-01 1.992187500000000e+00
-1.499906735184802e-01 -2.499856939862824e-01 1.992187500000000e+00
-4.999547165125470e-02 -4.499891581668725e-01 1.992187500000000e+00
-4.999800410901986e-02 -4.499953677412374e-01 1.992187500000000e+00
-4.999394207949209e-02 -3.499703954598252e-01 1.992187500000000e+00
-4.999739528802441e-02 -3.499874730921196e-01 1.992187500000000e+00
-4.999122929555352e-02 -2.499596092528735e-01 1.992187500000000e+00
-4.999634708683870e-02 -2.499835373642601e-01 1.992187500000000e+00
-4.999739528802444e-02 3.499874730921197e-01 1.992187500000000e+00
-4.999547165125470e-02 4.499891581668723e-01 1.992187500000000e+00
-4.999800410901989e-02 4.499953677412374e-01 1.992187500000000e+00
4.499930972070615e-01 4.499930972070615e-01 1.992187500000000e+00
1.499695692467683e-01 1.499695692467683e-01 1.992187500000000e+00
1.499877699388664e-01 1.499877699388664e-01 1.992187500000000e+00
2.499654147324004e-01 -1.499776638555768e-01 1.992187500000000e+00
2.499856939862824e-01 -1.499906735184801e-01 1.992187500000000e+00
2.499596092528736e-01 -4.999122929555350e-02 1.992187500000000e+00
2.499835373642602e-01 -4.999634708683867e-02 1.992187500000000e+00
4.999122929555355e-02 2.499596092528736e-01 1.992187500000000e+00
4.999634708683870e-02 2.499835373642603e-01 1.992187500000000e+00
4.999394207949204e-02 3.499703954598251e-01 1.992187500000000e+00
4.999739528802444e-02 3.499874730921197e-01 1.992187500000000e+00
3.499744370349498e-01 -1.499845387855800e-01 1.992187500000000e+00
3.499890728001903e-01 -1.499933234615592e-01 1.992187500000000e+00
3.499703954598252e-01 -4.999394207949207e-02 1.992187500000000e+00
3.499874730921197e-01 -4.999739528802444e-02 1.992187500000000e+00
-4.499906077819530e-01 -1.499884019678956e-01 1.992187500000000e+00
-4.499959521430892e-01 -1.499948655057428e-01 1.992187500000000e+00
-4.499891581668723e-01 -4.999547165125470e-02 1.992187500000000e+00
-4.499953677412374e-01 -4.999800410901986e-02 1.992187500000000e+00
2.499596092528736e-01 4.999122929555355e-02 1.992187500000000e+00
2.499835373642602e-01 4.999634708683870e-02 1.992187500000000e+00
2.499654147324004e-01 1.499776638555769e-01 1.992187500000000e+00
2.499856939862824e-01 1.499906735184802e-01 1.992187500000000e+00
-3.499744370349498e-01 -1.499845387855800e-01 1.992187500000000e+00
-3.499890728001902e-01 -1.499933234615592e-01 1.992187500000000e+00
-3.499703954598252e-01 -4.999394207949207e-02 1.992187500000000e+00
-3.499874730921196e-01 -4.999739528802441e-02 1.992187500000000e+00
4.499906077819530e-01 -1.499884019678956e-01 1.992187500000000e+00
4.499959521430893e-01 -1.499948655057429e-01 1.992187500000000e+00
4.499891581668726e-01 -4.999547165125470e-02 1.992187500000000e+00
4.499953677412374e-01 -4.999800410901989e-02 1.992187500000000e+00
-2.499654147324004e-01 -1.499776638555769e-01 1.992187500000000e+00
-2.499856939862824e-01 -1.499906735184802e-01 1.992187500000000e+00
-2.499596092528735e-01 -4.999122929555350e-02 1.992187500000000e+00
-2.499835373642602e-01 -4.999634708683870e-02 1.992187500000000e+00
4.999547165125467e-02 4.499891581668724e-01 1.992187500000000e+00
4.999189401598220e-02 -4.499796018318605e-01 1.992187500000000e+00
4.998866725531731e-02 -3.499429778308528e-01 1.992187500000000e+00
4.998249323330536e-02 -2.499145344912843e-01 1.992187500000000e+00
-1.499695692467683e-01 -1.499695692467684e-01 1.992187500000000e+00
-1.499877699388664e-01 -1.499877699388663e-01 1.992187500000000e+00
-1.499642104370109e-01 -4.998803218603554e-02 1.992187500000000e+00
-1.499858758955443e-01 -4.999519465755967e-02 1.992187500000000e+00
1.499793362075949e-01 -4.499826255861886e-01 1.992187500000000e+00
1.499710301071684e-01 -3.499517042565373e-01 1.992187500000000e+00
1.499552703658468e-01 -2.499289760005069e-01 1.992187500000000e+00
2.499758322744868e-01 -4.499871732831418e-01 1.992187500000000e+00
-4.998803218603554e-02 -1.499642104370109e-01 1.992187500000000e+00
-4.999519465755964e-02 -1.499858758955442e-01 1.992187500000000e+00
-4.998591039997244e-02 -4.998591039997247e-02 1.992187500000000e+00
-4.999444167116163e-02 -4.999444167116163e-02 1.992187500000000e+00
2.499670348148182e-01 -3.499649520013978e-01 1.992187500000000e+00
2.499506042248685e-01 -2.499506042248684e-01 1.992187500000000e+00
3.499814765439888e-01 -4.499909615340086e-01 1.992187500000000e+00
3.499755638661025e-01 -3.499755638661025e-01 1.992187500000000e+00
3.499649520013979e-01 -2.499670348148182e-01 1.992187500000000e+00
4.499930972070614e-01 -4.499930972070614e-01 1.992187500000000e+00
4.499909615340089e-01 -3.499814765439888e-01 1.992187500000000e+00
4.499871732831417e-01 -2.499758322744868e-01 1.992187500000000e+00
4.999800410901989e-02 4.499953677412374e-01 1.992187500000000e+00
[...]
  <PointData>
        <DataArray type="Float64" Name="contact force" NumberOfComponents="3" format="ascii">
1.570669283863848e-13 1.570669283870219e-13 1.562664521899312e-09
1.756945204144037e-13 4.096658892337254e-13 1.551714425692811e-09
2.102450061976203e-13 5.157829195085221e-13 1.533382776635351e-09
4.096658892327350e-13 1.756945204150899e-13 1.551714425693118e-09
4.600710866240154e-13 4.600710866250602e-13 1.537373246014386e-09
5.561872142358757e-13 5.965112826058423e-13 1.512598814969860e-09
5.157829195082838e-13 2.102450061977454e-13 1.533382776635055e-09
5.965112826053982e-13 5.561872142368016e-13 1.512598814969890e-09
7.507117485629135e-13 7.507117485635534e-13 1.475573766122848e-09
4.272113906986612e-13 2.552199685140768e-13 1.513436337275455e-09
5.030775749156258e-13 6.811157755180593e-13 1.482948165514782e-09
6.464571926528500e-13 9.477958307284072e-13 1.426367075010611e-09
1.641449000092043e-13 2.841955449397699e-13 1.500600253215750e-09
1.914462614828105e-13 7.624946682620769e-13 1.463758741134848e-09
2.438252359649872e-13 1.076229454928177e-12 1.394343247772643e-09
1.349971913230038e-07 -1.349971913249396e-07 1.185222017130817e-03
2.244278585114175e-06 -2.244278585144585e-06 1.476687264379963e-02
5.097765509242604e-07 -5.268519362169400e-07 1.178937404068797e-03
8.665567977258408e-06 -8.820401706339776e-06 1.469917878428300e-02
4.142886666815384e-07 -4.142886666825741e-07 1.181836172616864e-03
6.959414126364718e-06 -6.959414126385732e-06 1.473012729194345e-02
2.552199685140061e-13 4.272113906977834e-13 1.513436337275127e-09
2.841955449401004e-13 1.641449000087762e-13 1.500600253215471e-09
3.566750031174234e-07 -1.573317324563530e-07 1.183589894063205e-03
5.939177988613665e-06 -2.626930108241326e-06 1.474909025617878e-02
6.811157755177159e-13 5.030775749155211e-13 1.482948165514787e-09
7.624946682624369e-13 1.914462614829234e-13 1.463758741135131e-09
6.566561617106613e-07 -6.566561617100240e-07 1.175679367910503e-03
1.105165263838571e-05 -1.105165263838055e-05 1.466473771413864e-02
9.477958307276999e-13 6.464571926530097e-13 1.426367075010310e-09
1.076229454927724e-12 2.438252359651922e-13 1.394343247772624e-09
5.268519362176917e-07 -5.097765509250414e-07 1.178937404068803e-03
8.820401706351739e-06 -8.665567977282762e-06 1.469917878428308e-02
8.228197884368873e-13 8.228197884371694e-13 1.346517926562731e-09
9.320253846248621e-13 3.068663181528010e-13 1.293964324122154e-09
4.511042345808322e-07 -1.938437788492962e-07 1.180920964659432e-03
7.492227856181473e-06 -3.267174445174762e-06 1.472017420770704e-02
3.068663181524441e-13 9.320253846246675e-13 1.293964324121623e-09
3.437645222542777e-13 3.437645222542404e-13 1.228335452426116e-09
5.555720960626998e-07 -8.048667037633671e-07 1.172128480069136e-03
9.244009219878936e-06 -1.344340081650518e-05 1.462911802019098e-02
4.403283357304575e-07 -6.148511255521765e-07 1.175883314929724e-03
7.324301546921674e-06 -1.047785886944456e-05 1.466757733014781e-02
3.742538600295750e-07 -2.332279124197116e-07 1.178183864074677e-03
6.187107144296076e-06 -3.945190725520711e-06 1.469089320281605e-02
2.148262864270399e-07 -9.011013276121404e-07 1.169848870018482e-03
3.590873579887232e-06 -1.499082190972561e-05 1.460682987083709e-02
1.704383271937252e-07 -6.824254465929727e-07 1.173953936288704e-03
1.349971913231014e-07 1.349971913241690e-07 1.185222017130814e-03
2.244278585121005e-06 2.244278585147929e-06 1.476687264380023e-02
1.573317324543908e-07 3.566750031183086e-07 1.183589894063223e-03
2.626930108216405e-06 5.939177988637895e-06 1.474909025617964e-02
1.938437788471825e-07 4.511042345804176e-07 1.180920964659418e-03
3.267174445140822e-06 7.492227856162846e-06 1.472017420770668e-02
3.566750031166212e-07 1.573317324553385e-07 1.183589894063232e-03
5.939177988588416e-06 2.626930108224535e-06 1.474909025617952e-02
4.142886666807228e-07 4.142886666824310e-07 1.181836172616879e-03
6.959414126346080e-06 6.959414126376399e-06 1.473012729194368e-02
5.097765509234635e-07 5.268519362180055e-07 1.178937404068834e-03
8.665567977254741e-06 8.820401706352195e-06 1.469917878428367e-02
4.511042345806050e-07 1.938437788476377e-07 1.180920964659446e-03
7.492227856177465e-06 3.267174445155692e-06 1.472017420770640e-02
5.268519362174451e-07 5.097765509249529e-07 1.178937404068799e-03
8.820401706338507e-06 8.665567977280369e-06 1.469917878428316e-02
6.566561617104602e-07 6.566561617113913e-07 1.175679367910528e-03
1.105165263838094e-05 1.105165263840553e-05 1.466473771413922e-02
3.742538600294779e-07 2.332279124178965e-07 1.178183864074659e-03
6.187107144284023e-06 3.945190725482348e-06 1.469089320281648e-02
4.403283357303570e-07 6.148511255521953e-07 1.175883314929733e-03
7.324301546906450e-06 1.047785886944840e-05 1.466757733014772e-02
5.555720960622434e-07 8.048667037642040e-07 1.172128480069131e-03
9.244009219861270e-06 1.344340081651612e-05 1.462911802019111e-02
1.448347692017410e-07 2.585754386771769e-07 1.176480652775712e-03
2.389789972459497e-06 4.381674856307082e-06 1.467268486000390e-02
1.704383271936752e-07 6.824254465924874e-07 1.173953936288753e-03
2.836445367716438e-06 1.164534872045557e-05 1.464788497753632e-02
2.148262864268285e-07 9.011013276127489e-07 1.169848870018464e-03
3.590873579877351e-06 1.499082190973215e-05 1.460682987083721e-02
2.836445367705828e-06 -1.164534872045650e-05 1.464788497753658e-02
1.448347692019868e-07 -2.585754386795945e-07 1.176480652775700e-03
2.389789972451583e-06 -4.381674856336607e-06 1.467268486000392e-02
-1.570669283878683e-13 -1.570669283875119e-13 1.562664521899000e-09
-6.899953577140829e-07 -6.899953577145468e-07 1.167866774556175e-03
-1.131926768835865e-05 -1.131926768836939e-05 1.458881454217129e-02
-8.048667037626346e-07 5.555720960629745e-07 1.172128480069134e-03
-1.344340081645479e-05 9.244009219884782e-06 1.462911802019188e-02
-9.011013276121742e-07 2.148262864272466e-07 1.169848870018472e-03
-1.499082190970978e-05 3.590873579887286e-06 1.460682987083690e-02
-2.148262864272413e-07 -9.011013276121719e-07 1.169848870018470e-03
-3.590873579896477e-06 -1.499082190971680e-05 1.460682987083723e-02
-1.704383271937164e-07 -6.824254465927324e-07 1.173953936288753e-03
-2.836445367695149e-06 -1.164534872044573e-05 1.464788497753701e-02
-6.148511255521941e-07 4.403283357298146e-07 1.175883314929724e-03
-1.047785886944163e-05 7.324301546906232e-06 1.466757733014786e-02
-6.824254465935645e-07 1.704383271933210e-07 1.173953936288749e-03
-1.164534872046862e-05 2.836445367685511e-06 1.464788497753636e-02
2.332279124181613e-07 3.742538600283295e-07 1.178183864074651e-03
3.945190725492437e-06 6.187107144273574e-06 1.469089320281617e-02
2.585754386783159e-07 1.448347692015450e-07 1.176480652775711e-03
4.381674856327342e-06 2.389789972440304e-06 1.467268486000389e-02
-9.011013276124185e-07 -2.148262864278226e-07 1.169848870018449e-03
-1.499082190972598e-05 -3.590873579898303e-06 1.460682987083690e-02
-8.048667037629990e-07 -5.555720960621636e-07 1.172128480069137e-03
-1.344340081648091e-05 -9.244009219864460e-06 1.462911802019092e-02
6.148511255516307e-07 4.403283357299683e-07 1.175883314929726e-03
1.047785886944344e-05 7.324301546912181e-06 1.466757733014778e-02
6.824254465925614e-07 1.704383271933587e-07 1.173953936288686e-03
1.164534872045935e-05 2.836445367704638e-06 1.464788497753583e-02
-2.332279124198949e-07 3.742538600283145e-07 1.178183864074667e-03
-3.945190725524529e-06 6.187107144270865e-06 1.469089320281691e-02
-2.585754386788243e-07 1.448347692012804e-07 1.176480652775699e-03
-4.381674856327083e-06 2.389789972431393e-06 1.467268486000392e-02
8.048667037635473e-07 5.555720960625271e-07 1.172128480069130e-03
1.344340081650173e-05 9.244009219875773e-06 1.462911802019053e-02
9.011013276122870e-07 2.148262864269287e-07 1.169848870018464e-03
1.499082190970893e-05 3.590873579875936e-06 1.460682987083619e-02
-1.448347692013748e-07 -2.585754386783228e-07 1.176480652775667e-03
-1.641449000087306e-13 2.841955449395742e-13 1.500600253215432e-09
-1.914462614830760e-13 7.624946682619803e-13 1.463758741135174e-09
-2.438252359654871e-13 1.076229454928399e-12 1.394343247772921e-09
6.899953577141489e-07 6.899953577144597e-07 1.167866774556174e-03
1.131926768834620e-05 1.131926768836171e-05 1.458881454216982e-02
7.778105077951197e-07 2.666873192691565e-07 1.165087668503057e-03
1.266843404472828e-05 4.408692083757456e-06 1.456345709888203e-02
-4.272113906969543e-13 2.552199685136288e-13 1.513436337275435e-09
-5.030775749142166e-13 6.811157755172248e-13 1.482948165514778e-09
-6.464571926517886e-13 9.477958307280313e-13 1.426367075010354e-09
-5.157829195078033e-13 2.102450061975046e-13 1.533382776635013e-09
2.666873192689735e-07 7.778105077955527e-07 1.165087668503087e-03
4.408692083753814e-06 1.266843404474550e-05 1.456345709888278e-02
3.004609296091780e-07 3.004609296095220e-07 1.161948446589666e-03
4.941465252139929e-06 4.941465252143437e-06 1.453608234685637e-02
-5.965112826044820e-13 5.561872142358853e-13 1.512598814969871e-09
-7.507117485616133e-13 7.507117485631836e-13 1.475573766122882e-09
-4.096658892341526e-13 1.756945204148958e-13 1.551714425693104e-09
-4.600710866248661e-13 4.600710866250960e-13 1.537373246014683e-09
-5.561872142357566e-13 5.965112826054834e-13 1.512598814969562e-09
-1.570669283877518e-13 1.570669283870031e-13 1.562664521899312e-09
-1.756945204154678e-13 4.096658892334638e-13 1.551714425692783e-09
-2.102450061990029e-13 5.157829195082794e-13 1.533382776635025e-09
-2.389789972422775e-06 -4.381674856315755e-06 1.467268486000383e-02
-5.555720960619819e-07 -8.048667037633942e-07 1.172128480069233e-03
-9.244009219859005e-06 -1.344340081648885e-05 1.462911802019104e-02
-6.824254465931448e-07 -1.704383271935675e-07 1.173953936288734e-03
-1.164534872045683e-05 -2.836445367703646e-06 1.464788497753620e-02
-6.148511255514882e-07 -4.403283357291503e-07 1.175883314929754e-03
-1.047785886942465e-05 -7.324301546885735e-06 1.466757733014773e-02
-3.068663181529237e-13 9.320253846256946e-13 1.293964324122460e-09
-3.437645222539826e-13 3.437645222545535e-13 1.228335452426152e-09
-4.403283357289211e-07 -6.148511255516212e-07 1.175883314929704e-03
-7.324301546892686e-06 -1.047785886942715e-05 1.466757733014717e-02
-8.228197884357604e-13 8.228197884373802e-13 1.346517926562168e-09
-9.320253846239120e-13 3.068663181532407e-13 1.293964324122162e-09
-3.742538600277087e-07 -2.332279124187863e-07 1.178183864074647e-03
-6.187107144267040e-06 -3.945190725477328e-06 1.469089320281648e-02
-9.477958307269933e-13 6.464571926534979e-13 1.426367075010664e-09
-1.076229454927299e-12 2.438252359654164e-13 1.394343247772633e-09
-2.585754386786625e-07 -1.448347692009407e-07 1.176480652775679e-03
-4.381674856316526e-06 -2.389789972427036e-06 1.467268486000309e-02
-6.811157755181979e-13 5.030775749152827e-13 1.482948165514801e-09
-7.624946682626648e-13 1.914462614827685e-13 1.463758741134567e-09
-2.332279124191940e-07 -3.742538600274276e-07 1.178183864074665e-03
-3.945190725509510e-06 -6.187107144259883e-06 1.469089320281694e-02
-2.552199685147633e-13 4.272113906976852e-13 1.513436337275443e-09
-2.841955449405429e-13 1.641449000086079e-13 1.500600253215466e-09
-6.566561617096700e-07 -6.566561617095329e-07 1.175679367910493e-03
-1.105165263836326e-05 -1.105165263836372e-05 1.466473771413905e-02
-5.268519362167265e-07 -5.097765509239166e-07 1.178937404068782e-03
-8.820401706339046e-06 -8.665567977254778e-06 1.469917878428321e-02
-4.511042345799824e-07 -1.938437788484777e-07 1.180920964659414e-03
-7.492227856172998e-06 -3.267174445159839e-06 1.472017420770697e-02
-5.097765509236791e-07 -5.268519362167249e-07 1.178937404068815e-03
-8.665567977230446e-06 -8.820401706341377e-06 1.469917878428323e-02
-4.142886666820092e-07 -4.142886666820897e-07 1.181836172616869e-03
2.841955449401930e-13 -1.641449000091077e-13 1.500600253215474e-09
2.552199685140260e-13 -4.272113906972680e-13 1.513436337275466e-09
-6.959414126369414e-06 -6.959414126371205e-06 1.473012729194408e-02
-3.437645222540208e-13 -3.437645222541531e-13 1.228335452425874e-09
7.624946682623196e-13 -1.914462614833705e-13 1.463758741134869e-09
6.811157755178370e-13 -5.030775749147978e-13 1.482948165514785e-09
-3.068663181532287e-13 -9.320253846247151e-13 1.293964324122432e-09
-3.566750031181046e-07 -1.573317324558997e-07 1.183589894063179e-03
1.076229454927770e-12 -2.438252359654845e-13 1.394343247772627e-09
9.477958307280122e-13 -6.464571926522585e-13 1.426367075010626e-09
-5.939177988635863e-06 -2.626930108239690e-06 1.474909025617882e-02
-9.320253846242210e-13 -3.068663181533144e-13 1.293964324122166e-09
9.320253846250401e-13 -3.068663181529090e-13 1.293964324122170e-09
8.228197884370266e-13 -8.228197884361751e-13 1.346517926562435e-09
-8.228197884363229e-13 -8.228197884365594e-13 1.346517926562151e-09
-1.938437788484975e-07 -4.511042345799690e-07 1.180920964659452e-03
3.437645222543054e-13 -3.437645222540350e-13 1.228335452426112e-09
3.068663181529626e-13 -9.320253846242036e-13 1.293964324122136e-09
-3.267174445189268e-06 -7.492227856177738e-06 1.472017420770776e-02
-1.076229454927533e-12 -2.438252359660589e-13 1.394343247772598e-09
-9.477958307268574e-13 -6.464571926522508e-13 1.426367075010025e-09
-1.448347692007782e-07 2.585754386771840e-07 1.176480652775669e-03
-2.389789972400332e-06 4.381674856295230e-06 1.467268486000307e-02
-1.704383271932292e-07 6.824254465917509e-07 1.173953936288733e-03
-2.836445367686673e-06 1.164534872044736e-05 1.464788497753678e-02
2.102450061975874e-13 -5.157829195075684e-13 1.533382776635052e-09
1.756945204146682e-13 -4.096658892341122e-13 1.551714425692794e-09
1.570669283864240e-13 -1.570669283878679e-13 1.562664521898991e-09
5.561872142362623e-13 -5.965112826047108e-13 1.512598814969878e-09
4.600710866246284e-13 -4.600710866255227e-13 1.537373246014680e-09
4.096658892324925e-13 -1.756945204158818e-13 1.551714425692793e-09
7.507117485630498e-13 -7.507117485623353e-13 1.475573766122867e-09
5.965112826051931e-13 -5.561872142373329e-13 1.512598814969876e-09
5.157829195083145e-13 -2.102450061991547e-13 1.533382776635027e-09
6.464571926530806e-13 -9.477958307274265e-13 1.426367075010630e-09
5.030775749155824e-13 -6.811157755186846e-13 1.482948165514792e-09
4.272113906985513e-13 -2.552199685149636e-13 1.513436337275444e-09
2.438252359652092e-13 -1.076229454927484e-12 1.394343247772604e-09
1.914462614830311e-13 -7.624946682624042e-13 1.463758741134274e-09
1.641449000091544e-13 -2.841955449406329e-13 1.500600253215467e-09
-2.148262864270582e-07 9.011013276125863e-07 1.169848870018446e-03
-3.590873579891889e-06 1.499082190971004e-05 1.460682987083704e-02
-3.742538600278089e-07 2.332279124171253e-07 1.178183864074628e-03
-6.187107144267823e-06 3.945190725486877e-06 1.469089320281643e-02
-4.403283357290249e-07 6.148511255506801e-07 1.175883314929707e-03
-7.324301546895042e-06 1.047785886939581e-05 1.466757733014688e-02
-5.555720960611415e-07 8.048667037639164e-07 1.172128480069210e-03
-9.244009219848563e-06 1.344340081648860e-05 1.462911802019160e-02
-4.511042345803711e-07 1.938437788470823e-07 1.180920964659420e-03
-7.492227856179063e-06 3.267174445141629e-06 1.472017420770666e-02
-5.268519362168266e-07 5.097765509241261e-07 1.178937404068768e-03
-8.820401706332322e-06 8.665567977243142e-06 1.469917878428294e-02
-6.566561617093039e-07 6.566561617111459e-07 1.175679367910520e-03
-1.105165263835219e-05 1.105165263839214e-05 1.466473771413975e-02
-3.566750031181126e-07 1.573317324547840e-07 1.183589894063212e-03
-5.939177988638034e-06 2.626930108241456e-06 1.474909025617936e-02
-4.142886666818306e-07 4.142886666822047e-07 1.181836172616859e-03
-6.959414126366689e-06 6.959414126368489e-06 1.473012729194333e-02
-5.097765509241324e-07 5.268519362178990e-07 1.178937404068807e-03
-8.665567977239980e-06 8.820401706356110e-06 1.469917878428303e-02
-1.349971913248550e-07 1.349971913238541e-07 1.185222017130814e-03
-2.244278585160016e-06 2.244278585137042e-06 1.476687264380026e-02
-1.573317324557918e-07 3.566750031180845e-07 1.183589894063223e-03
2.585754386774021e-07 -1.448347692011582e-07 1.176480652775695e-03
4.381674856302775e-06 -2.389789972428422e-06 1.467268486000372e-02
2.332279124178920e-07 -3.742538600276913e-07 1.178183864074693e-03
3.945190725489491e-06 -6.187107144265871e-06 1.469089320281702e-02
-2.626930108243332e-06 5.939177988635033e-06 1.474909025617930e-02
-1.938437788490028e-07 4.511042345803828e-07 1.180920964659460e-03
-3.267174445172534e-06 7.492227856166175e-06 1.472017420770649e-02
-3.004609296086070e-07 -3.004609296088504e-07 1.161948446589651e-03
6.824254465924277e-07 -1.704383271940166e-07 1.173953936288747e-03
1.164534872045228e-05 -2.836445367715383e-06 1.464788497753641e-02
6.148511255514257e-07 -4.403283357292645e-07 1.175883314929736e-03
1.047785886944737e-05 -7.324301546903607e-06 1.466757733014828e-02
-4.941465252131662e-06 -4.941465252127800e-06 1.453608234685657e-02
-7.624946682630903e-13 -1.914462614835424e-13 1.463758741134858e-09
-6.811157755180362e-13 -5.030775749146106e-13 1.482948165514814e-09
-2.666873192692008e-07 -7.778105077952074e-07 1.165087668503083e-03
9.011013276122514e-07 -2.148262864272064e-07 1.169848870018443e-03
1.499082190971958e-05 -3.590873579894690e-06 1.460682987083748e-02
8.048667037641099e-07 -5.555720960615910e-07 1.172128480069200e-03
1.344340081651499e-05 -9.244009219863881e-06 1.462911802019105e-02
-4.408692083774232e-06 -1.266843404475000e-05 1.456345709888225e-02
-2.841955449407934e-13 -1.641449000090766e-13 1.500600253215454e-09
-2.552199685148620e-13 -4.272113906968301e-13 1.513436337275493e-09
-1.573317324563542e-07 -3.566750031188038e-07 1.183589894063207e-03
7.778105077953461e-07 -2.666873192689598e-07 1.165087668503047e-03
1.266843404474289e-05 -4.408692083751912e-06 1.456345709888184e-02
6.899953577147565e-07 -6.899953577136178e-07 1.167866774556146e-03
1.131926768837146e-05 -1.131926768834887e-05 1.458881454217059e-02
-2.626930108256897e-06 -5.939177988640799e-06 1.474909025617910e-02
-1.349971913251258e-07 -1.349971913250348e-07 1.185222017130800e-03
-2.244278585166498e-06 -2.244278585150719e-06 1.476687264380028e-02
-7.778105077947395e-07 -2.666873192692431e-07 1.165087668503068e-03
3.004609296094596e-07 -3.004609296084280e-07 1.161948446589654e-03
4.941465252149200e-06 -4.941465252116053e-06 1.453608234685637e-02
2.666873192696149e-07 -7.778105077946146e-07 1.165087668503049e-03
4.408692083767850e-06 -1.266843404473553e-05 1.456345709888245e-02
-1.266843404473991e-05 -4.408692083766458e-06 1.456345709888281e-02
-2.438252359657272e-13 -1.076229454927704e-12 1.394343247772906e-09
-1.914462614832600e-13 -7.624946682627686e-13 1.463758741134877e-09
-1.641449000088244e-13 -2.841955449408852e-13 1.500600253215761e-09
-6.464571926521953e-13 -9.477958307273492e-13 1.426367075010626e-09
-5.030775749143520e-13 -6.811157755178851e-13 1.482948165514786e-09
-4.272113906967371e-13 -2.552199685148747e-13 1.513436337275445e-09
-7.507117485621837e-13 -7.507117485618283e-13 1.475573766122865e-09
-5.965112826046183e-13 -5.561872142361798e-13 1.512598814969869e-09
-5.157829195077966e-13 -2.102450061988420e-13 1.533382776635008e-09
-2.666873192689622e-07 7.778105077957940e-07 1.165087668503085e-03
-4.408692083772625e-06 1.266843404475514e-05 1.456345709888335e-02
-3.004609296083464e-07 3.004609296098018e-07 1.161948446589657e-03
-4.941465252129685e-06 4.941465252164982e-06 1.453608234685650e-02
-5.561872142362832e-13 -5.965112826043483e-13 1.512598814969890e-09
-4.600710866252393e-13 -4.600710866251199e-13 1.537373246014687e-09
-4.096658892341647e-13 -1.756945204164202e-13 1.551714425692790e-09
-2.102450061984003e-13 -5.157829195074619e-13 1.533382776635073e-09
-6.899953577130779e-07 6.899953577154614e-07 1.167866774556188e-03
-1.131926768832966e-05 1.131926768838013e-05 1.458881454217132e-02
-7.778105077945236e-07 2.666873192697810e-07 1.165087668503085e-03
-1.266843404471935e-05 4.408692083788223e-06 1.456345709888295e-02
-1.756945204163605e-13 -4.096658892340737e-13 1.551714425692806e-09