<?xml version="1.0" ?> 
<!-- 
# vtk DataFile Version 3.0
-->
<VTKFile type="UnstructuredGrid" version="0.1" compressor="vtkZLibDataCompressor" byte_order="LittleEndian">
  <UnstructuredGrid>
    <FieldData>
      <DataArray type="Float64" Name="TIME" NumberOfTuples="1" format="ascii">
2.500000000000002e-01 
      </DataArray>
    </FieldData>

    <Piece NumberOfPoints="1" NumberOfCells="0" >
      <Points>
        <DataArray type="Float64" NumberOfComponents="3" format="ascii">
-3.497583440932611e-17 -3.280501906447992e-17 1.197167290907433e+00
        </DataArray>
      </Points>

      <Cells>
        <DataArray type="Int32" Name="connectivity" format="ascii">

        </DataArray>
        <DataArray type="Int32" Name="offsets" format="ascii">

        </DataArray>
        <DataArray type="UInt8" Name="types" format="ascii">

        </DataArray>
      </Cells>

  <PointData>
        <DataArray type="Float64" Name="acceleration" NumberOfComponents="3" format="ascii">
-3.111863522940736e-14 -1.160773950917292e-14 -6.356012211494591e-02
        </DataArray>
        <DataArray type="Float64" Name="angular acceleration" NumberOfComponents="3" format="ascii">
1.321835017291365e-14 1.514934409877603e-13 1.032486751830421e-14
        </DataArray>
        <DataArray type="Float64" Name="angular velocity" NumberOfComponents="3" format="ascii">
-1.046295123720820e-15 3.293302675375592e-15 9.599724199490554e-16
        </DataArray>
        <DataArray type="Float64" Name="force" NumberOfComponents="3" format="ascii">
-2.489490818352591e-15 -9.286191607338345e-16 -5.084809769195677e-03
        </DataArray>
        <DataArray type="Int32" Name="globalid" format="ascii">
0
        </DataArray>
        <DataArray type="Float64" Name="mass" format="ascii">
8.000000000000006e-02
        </DataArray>
        <DataArray type="Int32" Name="owner" format="ascii">
0
        </DataArray>
        <DataArray type="Float64" Name="torque" NumberOfComponents="3" format="ascii">
3.599551212651875e-17 4.125389266307344e-16 2.192121267494129e-17
        </DataArray>
        <DataArray type="Float64" Name="velocity" NumberOfComponents="3" format="ascii">
-6.235304662781461e-16 1.632688166614880e-16 -5.663474243508326e-02
        </DataArray>
      </PointData>

    </Piece>
  </UnstructuredGrid>
</VTKFile>
