<?xml version="1.0" ?> 
<!-- 
# vtk DataFile Version 3.0
-->
<VTKFile type="UnstructuredGrid" version="0.1" compressor="vtkZLibDataCompressor" byte_order="LittleEndian">
  <UnstructuredGrid>
    <FieldData>
      <DataArray type="Float64" Name="TIME" NumberOfTuples="1" format="ascii">
2.500000000000002e-01 
      </DataArray>
    </FieldData>

    <Piece NumberOfPoints="4" NumberOfCells="0" >
      <Points>
        <DataArray type="Float64" NumberOfComponents="3" format="ascii">
-1.534242397268472e-01 -1.534242397268472e-01 9.518570440787643e-01
1.534242397268472e-01 -1.534242397268472e-01 9.518570440787641e-01
1.534242397268472e-01 1.534242397268471e-01 9.518570440787641e-01
-1.534242397268472e-01 1.534242397268472e-01 9.518570440787643e-01
        </DataArray>
      </Points>

      <Cells>
        <DataArray type="Int32" Name="connectivity" format="ascii">

        </DataArray>
        <DataArray type="Int32" Name="offsets" format="ascii">

        </DataArray>
        <DataArray type="UInt8" Name="types" format="ascii">

        </DataArray>
      </Cells>

  <PointData>
        <DataArray type="Float64" Name="contact force" NumberOfComponents="3" format="ascii">
-3.108614420639389e-03 -3.108614420639364e-03 -4.113382763186930e-02
3.108614420639254e-03 -3.108614420639279e-03 -4.113382763186828e-02
3.108614420639254e-03 3.108614420639228e-03 -4.113382763186827e-02
-3.108614420639339e-03 3.108614420639364e-03 -4.113382763186930e-02
        </DataArray>
        <DataArray type="Float64" Name="normal direction" NumberOfComponents="3" format="ascii">
7.514522754908265e-02 7.514522754908204e-02 9.943371609032789e-01
-7.514522754908126e-02 7.514522754908187e-02 9.943371609032792e-01
-7.514522754908126e-02 -7.514522754908065e-02 9.943371609032792e-01
7.514522754908144e-02 -7.514522754908204e-02 9.943371609032789e-01
        </DataArray>
      </PointData>

    </Piece>
  </UnstructuredGrid>
</VTKFile>
