<?xml version="1.0" ?> 
<!-- 
# vtk DataFile Version 3.0
-->
<VTKFile type="UnstructuredGrid" version="0.1" compressor="vtkZLibDataCompressor" byte_order="LittleEndian">
  <UnstructuredGrid>
    <FieldData>
      <DataArray type="Float64" Name="TIME" NumberOfTuples="1" format="ascii">
1.250000000000001e-01 
      </DataArray>
    </FieldData>

    <Piece NumberOfPoints="1" NumberOfCells="0" >
      <Points>
        <DataArray type="Float64" NumberOfComponents="3" format="ascii">
1.177794230959412e-17 -5.447716964221494e-17 1.238987024997953e+00
        </DataArray>
      </Points>

      <Cells>
        <DataArray type="Int32" Name="connectivity" format="ascii">

        </DataArray>
        <DataArray type="Int32" Name="offsets" format="ascii">

        </DataArray>
        <DataArray type="UInt8" Name="types" format="ascii">

        </DataArray>
      </Cells>

  <PointData>
        <DataArray type="Float64" Name="acceleration" NumberOfComponents="3" format="ascii">
-3.474867962816039e-14 -9.334980705100187e-15 -2.350034526833131e-01
        </DataArray>
        <DataArray type="Float64" Name="angular acceleration" NumberOfComponents="3" format="ascii">
6.923708117679771e-14 1.014070418385875e-13 8.681186908744190e-16
        </DataArray>
        <DataArray type="Float64" Name="angular velocity" NumberOfComponents="3" format="ascii">
4.767414977838545e-15 -1.967075642260631e-17 6.533670318161506e-16
        </DataArray>
        <DataArray type="Float64" Name="force" NumberOfComponents="3" format="ascii">
-2.779894370252833e-15 -7.467984564080155e-16 -1.880027621466506e-02
        </DataArray>
        <DataArray type="Int32" Name="globalid" format="ascii">
0
        </DataArray>
        <DataArray type="Float64" Name="mass" format="ascii">
8.000000000000006e-02
        </DataArray>
        <DataArray type="Int32" Name="owner" format="ascii">
0
        </DataArray>
        <DataArray type="Float64" Name="torque" NumberOfComponents="3" format="ascii">
1.885427577952292e-16 2.761462933320580e-16 1.843143693225358e-18
        </DataArray>
        <DataArray type="Float64" Name="velocity" NumberOfComponents="3" format="ascii">
3.558571758663708e-16 3.073221879886997e-16 -6.992075744636601e-02
        </DataArray>
      </PointData>

    </Piece>
  </UnstructuredGrid>
</VTKFile>
