<?xml version="1.0" ?> 
<!-- 
# vtk DataFile Version 3.0
-->
<VTKFile type="UnstructuredGrid" version="0.1" compressor="vtkZLibDataCompressor" byte_order="LittleEndian">
  <UnstructuredGrid>
    <FieldData>
      <DataArray type="Float64" Name="TIME" NumberOfTuples="1" format="ascii">
0.000000000000000e+00 
      </DataArray>
    </FieldData>

    <Piece NumberOfPoints="1" NumberOfCells="0" >
      <Points>
        <DataArray type="Float64" NumberOfComponents="3" format="ascii">
3.184843881676167e-17 2.778268066994103e-17 1.250000000000000e+00
        </DataArray>
      </Points>

      <Cells>
        <DataArray type="Int32" Name="connectivity" format="ascii">

        </DataArray>
        <DataArray type="Int32" Name="offsets" format="ascii">

        </DataArray>
        <DataArray type="UInt8" Name="types" format="ascii">

        </DataArray>
      </Cells>

  <PointData>
        <DataArray type="Float64" Name="acceleration" NumberOfComponents="3" format="ascii">
-7.029289260038202e-14 -7.618011039697831e-14 -2.764431746318607e-01
        </DataArray>
        <DataArray type="Float64" Name="angular acceleration" NumberOfComponents="3" format="ascii">
1.095490677734093e-13 -8.400818935195119e-14 -3.370023991523157e-14
        </DataArray>
        <DataArray type="Float64" Name="angular velocity" NumberOfComponents="3" format="ascii">
0.000000000000000e+00 0.000000000000000e+00 0.000000000000000e+00
        </DataArray>
        <DataArray type="Float64" Name="force" NumberOfComponents="3" format="ascii">
-5.623431408030566e-15 -6.094408831758269e-15 -2.211545397054887e-02
        </DataArray>
        <DataArray type="Int32" Name="globalid" format="ascii">
0
        </DataArray>
        <DataArray type="Float64" Name="mass" format="ascii">
8.000000000000006e-02
        </DataArray>
        <DataArray type="Int32" Name="owner" format="ascii">
0
        </DataArray>
        <DataArray type="Float64" Name="torque" NumberOfComponents="3" format="ascii">
2.983182277593865e-16 -2.287666583944414e-16 -7.155056712046526e-17
        </DataArray>
        <DataArray type="Float64" Name="velocity" NumberOfComponents="3" format="ascii">
0.000000000000000e+00 0.000000000000000e+00 0.000000000000000e+00
        </DataArray>
      </PointData>

    </Piece>
  </UnstructuredGrid>
</VTKFile>
