<?xml version="1.0" ?> 
<!-- 
# vtk DataFile Version 3.0
-->
<VTKFile type="UnstructuredGrid" version="0.1" compressor="vtkZLibDataCompressor" byte_order="LittleEndian">
  <UnstructuredGrid>
    <FieldData>
      <DataArray type="Float64" Name="TIME" NumberOfTuples="1" format="ascii">
6.250000000000001e-02 
      </DataArray>
    </FieldData>

    <Piece NumberOfPoints="16" NumberOfCells="0" >
      <Points>
        <DataArray type="Float64" NumberOfComponents="3" format="ascii">
-1.500017912377231e-01 -1.500017912377231e-01 9.990007184277275e-01
-1.500037072457547e-01 -5.000179133233423e-02 9.989970946963904e-01
-5.000179133233423e-02 -1.500037072457548e-01 9.989970946963904e-01
-5.000370777146548e-02 -5.000370777146552e-02 9.989895952155560e-01
5.000179133233412e-02 -1.500037072457548e-01 9.989970946963904e-01
5.000370777146540e-02 -5.000370777146552e-02 9.989895952155556e-01
1.500017912377231e-01 -1.500017912377231e-01 9.990007184277276e-01
1.500037072457548e-01 -5.000179133233423e-02 9.989970946963902e-01
-1.500037072457547e-01 5.000179133233412e-02 9.989970946963904e-01
-1.500017912377231e-01 1.500017912377231e-01 9.990007184277276e-01
5.000370777146537e-02 5.000370777146537e-02 9.989895952155559e-01
5.000179133233412e-02 1.500037072457548e-01 9.989970946963904e-01
-5.000370777146549e-02 5.000370777146537e-02 9.989895952155559e-01
-5.000179133233423e-02 1.500037072457548e-01 9.989970946963904e-01
1.500037072457548e-01 5.000179133233412e-02 9.989970946963904e-01
1.500017912377231e-01 1.500017912377231e-01 9.990007184277276e-01
        </DataArray>
      </Points>

      <Cells>
        <DataArray type="Int32" Name="connectivity" format="ascii">

        </DataArray>
        <DataArray type="Int32" Name="offsets" format="ascii">

        </DataArray>
        <DataArray type="UInt8" Name="types" format="ascii">

        </DataArray>
      </Cells>

  <PointData>
        <DataArray type="Float64" Name="contact force" NumberOfComponents="3" format="ascii">
-2.077162474211926e-07 -2.077162474244112e-07 -5.731882185345554e-03
-4.238250935913968e-07 -2.047912775198759e-07 -5.651284116978678e-03
-2.047912775214624e-07 -4.238250935913968e-07 -5.651284116978678e-03
-4.134503614897485e-07 -4.134503614928436e-07 -5.513002032164844e-03
2.047912775198759e-07 -4.238250935913968e-07 -5.651284116978678e-03
4.134503614910487e-07 -4.134503614918225e-07 -5.513002032161584e-03
2.077162474212334e-07 -2.077162474244519e-07 -5.731882185346665e-03
4.238250935912231e-07 -2.047912775197920e-07 -5.651284116976387e-03
-4.238250935913969e-07 2.047912775214624e-07 -5.651284116978679e-03
-2.077162474212334e-07 2.077162474244520e-07 -5.731882185346667e-03
4.134503614881169e-07 4.134503614896644e-07 -5.513002032163736e-03
2.047912775198760e-07 4.238250935913971e-07 -5.651284116978681e-03
-4.134503614904382e-07 4.134503614896644e-07 -5.513002032163736e-03
-2.047912775214625e-07 4.238250935913971e-07 -5.651284116978681e-03
4.238250935913969e-07 2.047912775206692e-07 -5.651284116978679e-03
2.077162474212335e-07 2.077162474244520e-07 -5.731882185346668e-03
        </DataArray>
        <DataArray type="Float64" Name="normal direction" NumberOfComponents="3" format="ascii">
3.623875027987642e-05 3.623875028043794e-05 9.999999986867529e-01
7.499624569359181e-05 3.623800760507145e-05 9.999999965311850e-01
3.623800760535219e-05 7.499624569359181e-05 9.999999965311850e-01
7.499550276821058e-05 7.499550276877198e-05 9.999999943756744e-01
-3.623800760507145e-05 7.499624569359181e-05 9.999999965311850e-01
-7.499550276849079e-05 7.499550276863114e-05 9.999999943756747e-01
-3.623875027987650e-05 3.623875028043803e-05 9.999999986867530e-01
-7.499624569359146e-05 3.623800760507128e-05 9.999999965311849e-01
7.499624569359181e-05 -3.623800760535219e-05 9.999999965311850e-01
3.623875027987650e-05 -3.623875028043803e-05 9.999999986867530e-01
-7.499550276792972e-05 -7.499550276821042e-05 9.999999943756746e-01
-3.623800760507145e-05 -7.499624569359181e-05 9.999999965311850e-01
7.499550276835077e-05 -7.499550276821042e-05 9.999999943756746e-01
3.623800760535219e-05 -7.499624569359181e-05 9.999999965311850e-01
-7.499624569359181e-05 -3.623800760521182e-05 9.999999965311850e-01
-3.623875027987650e-05 -3.623875028043803e-05 9.999999986867530e-01
        </DataArray>
      </PointData>

    </Piece>
  </UnstructuredGrid>
</VTKFile>
