<?xml version="1.0" ?> 
<!-- 
# vtk DataFile Version 3.0
-->
<VTKFile type="UnstructuredGrid" version="0.1" compressor="vtkZLibDataCompressor" byte_order="LittleEndian">
  <UnstructuredGrid>
    <FieldData>
      <DataArray type="Float64" Name="TIME" NumberOfTuples="1" format="ascii">
1.250000000000001e-01 
      </DataArray>
    </FieldData>

    <Piece NumberOfPoints="12" NumberOfCells="0" >
      <Points>
        <DataArray type="Float64" NumberOfComponents="3" format="ascii">
-1.507237887842437e-01 -1.507237887842438e-01 9.924860125554806e-01
-1.510592334828032e-01 -5.074685044684985e-02 9.909372650947192e-01
-5.074685044684980e-02 -1.510592334828032e-01 9.909372650947192e-01
5.074685044684976e-02 -1.510592334828032e-01 9.909372650947192e-01
1.507237887842437e-01 -1.507237887842438e-01 9.924860125554805e-01
1.510592334828032e-01 -5.074685044684985e-02 9.909372650947194e-01
-1.510592334828031e-01 5.074685044684970e-02 9.909372650947194e-01
-1.507237887842437e-01 1.507237887842437e-01 9.924860125554805e-01
5.074685044684976e-02 1.510592334828031e-01 9.909372650947192e-01
-5.074685044684979e-02 1.510592334828031e-01 9.909372650947195e-01
1.510592334828033e-01 5.074685044684970e-02 9.909372650947192e-01
1.507237887842437e-01 1.507237887842437e-01 9.924860125554805e-01
        </DataArray>
      </Points>

      <Cells>
        <DataArray type="Int32" Name="connectivity" format="ascii">

        </DataArray>
        <DataArray type="Int32" Name="offsets" format="ascii">

        </DataArray>
        <DataArray type="UInt8" Name="types" format="ascii">

        </DataArray>
      </Cells>

  <PointData>
        <DataArray type="Float64" Name="contact force" NumberOfComponents="3" format="ascii">
-5.233009799428277e-04 -5.233009799428277e-04 -3.362034050431918e-02
-3.894862441239268e-04 -2.746212050396975e-04 -1.766817308894019e-02
-2.746212050397001e-04 -3.894862441239168e-04 -1.766817308894019e-02
2.746212050397027e-04 -3.894862441239065e-04 -1.766817308894019e-02
5.233009799427891e-04 -5.233009799428092e-04 -3.362034050431807e-02
3.894862441239437e-04 -2.746212050397166e-04 -1.766817308894137e-02
-3.894862441239435e-04 2.746212050397216e-04 -1.766817308894137e-02
-5.233009799428090e-04 5.233009799428090e-04 -3.362034050431805e-02
2.746212050397025e-04 3.894862441239165e-04 -1.766817308894018e-02
-2.746212050397343e-04 3.894862441239688e-04 -1.766817308894248e-02
3.894862441239370e-04 2.746212050397026e-04 -1.766817308894019e-02
5.233009799427688e-04 5.233009799428090e-04 -3.362034050431805e-02
        </DataArray>
        <DataArray type="Float64" Name="normal direction" NumberOfComponents="3" format="ascii">
1.556124174359324e-02 1.556124174359324e-02 9.997578184294410e-01
2.203649654884888e-02 1.553761995037875e-02 9.996364214984016e-01
1.553761995037889e-02 2.203649654884830e-02 9.996364214984016e-01
-1.553761995037904e-02 2.203649654884772e-02 9.996364214984016e-01
-1.556124174359260e-02 1.556124174359320e-02 9.997578184294409e-01
-2.203649654884835e-02 1.553761995037879e-02 9.996364214984017e-01
2.203649654884835e-02 -1.553761995037908e-02 9.996364214984017e-01
1.556124174359320e-02 -1.556124174359320e-02 9.997578184294409e-01
-1.553761995037904e-02 -2.203649654884830e-02 9.996364214984016e-01
1.553761995037883e-02 -2.203649654884840e-02 9.996364214984018e-01
-2.203649654884945e-02 -1.553761995037904e-02 9.996364214984016e-01
-1.556124174359201e-02 -1.556124174359320e-02 9.997578184294409e-01
        </DataArray>
      </PointData>

    </Piece>
  </UnstructuredGrid>
</VTKFile>
