<?xml version="1.0" ?> 
<!-- 
# vtk DataFile Version 3.0
-->
<VTKFile type="UnstructuredGrid" version="0.1" compressor="vtkZLibDataCompressor" byte_order="LittleEndian">
  <UnstructuredGrid>
    <FieldData>
      <DataArray type="Float64" Name="TIME" NumberOfTuples="1" format="ascii">
1.875000000000001e-01 
      </DataArray>
    </FieldData>

    <Piece NumberOfPoints="1" NumberOfCells="0" >
      <Points>
        <DataArray type="Float64" NumberOfComponents="3" format="ascii">
-6.244446742320747e-17 -8.374771874114973e-17 1.219237038349982e+00
        </DataArray>
      </Points>

      <Cells>
        <DataArray type="Int32" Name="connectivity" format="ascii">

        </DataArray>
        <DataArray type="Int32" Name="offsets" format="ascii">

        </DataArray>
        <DataArray type="UInt8" Name="types" format="ascii">

        </DataArray>
      </Cells>

  <PointData>
        <DataArray type="Float64" Name="acceleration" NumberOfComponents="3" format="ascii">
4.108584132633816e-14 4.854515227303843e-14 6.429453608169569e-01
        </DataArray>
        <DataArray type="Float64" Name="angular acceleration" NumberOfComponents="3" format="ascii">
-3.215403493868995e-13 1.778903270258379e-13 -1.097914814929414e-15
        </DataArray>
        <DataArray type="Float64" Name="angular velocity" NumberOfComponents="3" format="ascii">
2.525222469027263e-15 8.991936985567025e-16 1.818209967876585e-15
        </DataArray>
        <DataArray type="Float64" Name="force" NumberOfComponents="3" format="ascii">
3.286867306107055e-15 3.883612181843077e-15 5.143562886535658e-02
        </DataArray>
        <DataArray type="Int32" Name="globalid" format="ascii">
0
        </DataArray>
        <DataArray type="Float64" Name="mass" format="ascii">
8.000000000000006e-02
        </DataArray>
        <DataArray type="Int32" Name="owner" format="ascii">
0
        </DataArray>
        <DataArray type="Float64" Name="torque" NumberOfComponents="3" format="ascii">
-8.756016744992934e-16 4.844215306665234e-16 -2.331034670843835e-18
        </DataArray>
        <DataArray type="Float64" Name="velocity" NumberOfComponents="3" format="ascii">
1.088691447105951e-16 -4.146548149329755e-16 -9.301751255662886e-02
        </DataArray>
      </PointData>

    </Piece>
  </UnstructuredGrid>
</VTKFile>
