<?xml version="1.0" ?> 
<!-- 
# vtk DataFile Version 3.0
-->
<VTKFile type="UnstructuredGrid" version="0.1" compressor="vtkZLibDataCompressor" byte_order="LittleEndian">
  <UnstructuredGrid>
    <FieldData>
      <DataArray type="Float64" Name="TIME" NumberOfTuples="1" format="ascii">
6.250000000000001e-02 
      </DataArray>
    </FieldData>

    <Piece NumberOfPoints="1" NumberOfCells="0" >
      <Points>
        <DataArray type="Float64" NumberOfComponents="3" format="ascii">
-1.379882316130671e-17 -3.510946060654914e-17 1.248429512380344e+00
        </DataArray>
      </Points>

      <Cells>
        <DataArray type="Int32" Name="connectivity" format="ascii">

        </DataArray>
        <DataArray type="Int32" Name="offsets" format="ascii">

        </DataArray>
        <DataArray type="UInt8" Name="types" format="ascii">

        </DataArray>
      </Cells>

  <PointData>
        <DataArray type="Float64" Name="acceleration" NumberOfComponents="3" format="ascii">
-3.073171057910160e-14 1.014271132360189e-14 -5.640939318273700e-01
        </DataArray>
        <DataArray type="Float64" Name="angular acceleration" NumberOfComponents="3" format="ascii">
1.108032184675262e-13 1.410421852034536e-13 -2.495841236263953e-15
        </DataArray>
        <DataArray type="Float64" Name="angular velocity" NumberOfComponents="3" format="ascii">
-3.401634918368401e-16 -2.396199227975757e-16 4.193819159164051e-16
        </DataArray>
        <DataArray type="Float64" Name="force" NumberOfComponents="3" format="ascii">
-2.458536846328130e-15 8.114169058881515e-16 -4.512751454618964e-02
        </DataArray>
        <DataArray type="Int32" Name="globalid" format="ascii">
0
        </DataArray>
        <DataArray type="Float64" Name="mass" format="ascii">
8.000000000000006e-02
        </DataArray>
        <DataArray type="Int32" Name="owner" format="ascii">
0
        </DataArray>
        <DataArray type="Float64" Name="torque" NumberOfComponents="3" format="ascii">
3.017334646027159e-16 3.840786196029899e-16 -5.299038118022903e-18
        </DataArray>
        <DataArray type="Float64" Name="velocity" NumberOfComponents="3" format="ascii">
1.436583125136343e-15 1.520944218551083e-15 -3.629813669892610e-02
        </DataArray>
      </PointData>

    </Piece>
  </UnstructuredGrid>
</VTKFile>
