<?xml version="1.0" ?> 
<!-- 
# vtk DataFile Version 3.0
-->
<VTKFile type="UnstructuredGrid" version="0.1" compressor="vtkZLibDataCompressor" byte_order="LittleEndian">
  <UnstructuredGrid>
    <FieldData>
      <DataArray type="Float64" Name="TIME" NumberOfTuples="1" format="ascii">
1.875000000000001e-01 
      </DataArray>
    </FieldData>

    <Piece NumberOfPoints="12" NumberOfCells="0" >
      <Points>
        <DataArray type="Float64" NumberOfComponents="3" format="ascii">
-1.519321943901102e-01 -1.519321943901103e-01 9.744614492268759e-01
-1.529871444096534e-01 -5.210609984460973e-02 9.702179554646178e-01
-5.210609984460970e-02 -1.529871444096534e-01 9.702179554646179e-01
5.210609984460950e-02 -1.529871444096534e-01 9.702179554646178e-01
1.519321943901101e-01 -1.519321943901102e-01 9.744614492268758e-01
1.529871444096533e-01 -5.210609984460972e-02 9.702179554646178e-01
5.210609984460953e-02 1.529871444096533e-01 9.702179554646175e-01
1.529871444096533e-01 5.210609984460952e-02 9.702179554646175e-01
1.519321943901102e-01 1.519321943901101e-01 9.744614492268757e-01
-1.529871444096534e-01 5.210609984460949e-02 9.702179554646176e-01
-1.519321943901102e-01 1.519321943901102e-01 9.744614492268758e-01
-5.210609984460970e-02 1.529871444096532e-01 9.702179554646178e-01
        </DataArray>
      </Points>

      <Cells>
        <DataArray type="Int32" Name="connectivity" format="ascii">

        </DataArray>
        <DataArray type="Int32" Name="offsets" format="ascii">

        </DataArray>
        <DataArray type="UInt8" Name="types" format="ascii">

        </DataArray>
      </Cells>

  <PointData>
        <DataArray type="Float64" Name="contact force" NumberOfComponents="3" format="ascii">
-2.102678281600656e-03 -2.102678281600686e-03 -4.872628720843284e-02
-3.280376162649599e-04 -2.312844234811963e-04 -5.383102018517944e-03
-2.312844234812467e-04 -3.280376162650264e-04 -5.383102018519122e-03
2.312844234811949e-04 -3.280376162649600e-04 -5.383102018517945e-03
2.102678281600572e-03 -2.102678281600572e-03 -4.872628720843172e-02
3.280376162649568e-04 -2.312844234811955e-04 -5.383102018517942e-03
2.312844234811011e-04 3.280376162648227e-04 -5.383102018515716e-03
3.280376162648232e-04 2.312844234811022e-04 -5.383102018515724e-03
2.102678281600579e-03 2.102678281600489e-03 -4.872628720843061e-02
-3.280376162648914e-04 2.312844234811465e-04 -5.383102018516831e-03
-2.102678281600602e-03 2.102678281600662e-03 -4.872628720843172e-02
-2.312844234811979e-04 3.280376162649571e-04 -5.383102018517999e-03
        </DataArray>
        <DataArray type="Float64" Name="normal direction" NumberOfComponents="3" format="ascii">
4.307271831036690e-02 4.307271831036752e-02 9.981430167439492e-01
6.076970897499590e-02 4.284596158645888e-02 9.972318015621172e-01
4.284596158645883e-02 6.076970897499492e-02 9.972318015621172e-01
-4.284596158645860e-02 6.076970897499590e-02 9.972318015621172e-01
-4.307271831036617e-02 4.307271831036617e-02 9.981430167439491e-01
-6.076970897499534e-02 4.284596158645874e-02 9.972318015621172e-01
-4.284596158645897e-02 -6.076970897499563e-02 9.972318015621172e-01
-6.076970897499563e-02 -4.284596158645911e-02 9.972318015621172e-01
-4.307271831036730e-02 -4.307271831036545e-02 9.981430167439492e-01
6.076970897499577e-02 -4.284596158645850e-02 9.972318015621172e-01
4.307271831036679e-02 -4.307271831036803e-02 9.981430167439491e-01
4.284596158645874e-02 -6.076970897499478e-02 9.972318015621174e-01
        </DataArray>
      </PointData>

    </Piece>
  </UnstructuredGrid>
</VTKFile>
