<?xml version="1.0" ?> 
<!-- 
# vtk DataFile Version 3.0
-->
<VTKFile type="UnstructuredGrid" version="0.1" compressor="vtkZLibDataCompressor" byte_order="LittleEndian">
  <UnstructuredGrid>
    <FieldData>
      <DataArray type="Float64" Name="TIME" NumberOfTuples="1" format="ascii">
1.250000000000001e-01 
      </DataArray>
    </FieldData>

    <Piece NumberOfPoints="64" NumberOfCells="8" >
      <Points>
        <DataArray type="Float64" NumberOfComponents="3" format="ascii">
-5.000000000000000e-01 -5.000000000000000e-01 1.000000000000000e+00
-5.000000000000000e-01 -5.000000000000000e-01 5.000000000000000e-01
-5.000000000000000e-01 0.000000000000000e+00 5.000000000000000e-01
-5.000000000000000e-01 0.000000000000000e+00 1.000000000000000e+00
0.000000000000000e+00 -5.000000000000000e-01 1.000000000000000e+00
0.000000000000000e+00 -5.000000000000000e-01 5.000000000000000e-01
0.000000000000000e+00 0.000000000000000e+00 5.000000000000000e-01
0.000000000000000e+00 0.000000000000000e+00 1.000000000000000e+00
-5.000000000000000e-01 -5.000000000000000e-01 5.000000000000000e-01
-5.000000000000000e-01 -5.000000000000000e-01 0.000000000000000e+00
-5.000000000000000e-01 0.000000000000000e+00 0.000000000000000e+00
-5.000000000000000e-01 0.000000000000000e+00 5.000000000000000e-01
0.000000000000000e+00 -5.000000000000000e-01 5.000000000000000e-01
0.000000000000000e+00 -5.000000000000000e-01 0.000000000000000e+00
0.000000000000000e+00 0.000000000000000e+00 0.000000000000000e+00
0.000000000000000e+00 0.000000000000000e+00 5.000000000000000e-01
-5.000000000000000e-01 0.000000000000000e+00 1.000000000000000e+00
-5.000000000000000e-01 0.000000000000000e+00 5.000000000000000e-01
-5.000000000000000e-01 5.000000000000000e-01 5.000000000000000e-01
-5.000000000000000e-01 5.000000000000000e-01 1.000000000000000e+00
0.000000000000000e+00 0.000000000000000e+00 1.000000000000000e+00
0.000000000000000e+00 0.000000000000000e+00 5.000000000000000e-01
0.000000000000000e+00 5.000000000000000e-01 5.000000000000000e-01
0.000000000000000e+00 5.000000000000000e-01 1.000000000000000e+00
-5.000000000000000e-01 0.000000000000000e+00 5.000000000000000e-01
-5.000000000000000e-01 0.000000000000000e+00 0.000000000000000e+00
-5.000000000000000e-01 5.000000000000000e-01 0.000000000000000e+00
-5.000000000000000e-01 5.000000000000000e-01 5.000000000000000e-01
0.000000000000000e+00 0.000000000000000e+00 5.000000000000000e-01
0.000000000000000e+00 0.000000000000000e+00 0.000000000000000e+00
0.000000000000000e+00 5.000000000000000e-01 0.000000000000000e+00
0.000000000000000e+00 5.000000000000000e-01 5.000000000000000e-01
0.000000000000000e+00 -5.000000000000000e-01 1.000000000000000e+00
0.000000000000000e+00 -5.000000000000000e-01 5.000000000000000e-01
0.000000000000000e+00 0.000000000000000e+00 5.000000000000000e-01
0.000000000000000e+00 0.000000000000000e+00 1.000000000000000e+00
5.000000000000000e-01 -5.000000000000000e-01 1.000000000000000e+00
5.000000000000000e-01 -5.000000000000000e-01 5.000000000000000e-01
5.000000000000000e-01 0.000000000000000e+00 5.000000000000000e-01
5.000000000000000e-01 0.000000000000000e+00 1.000000000000000e+00
0.000000000000000e+00 -5.000000000000000e-01 5.000000000000000e-01
0.000000000000000e+00 -5.000000000000000e-01 0.000000000000000e+00
0.000000000000000e+00 0.000000000000000e+00 0.000000000000000e+00
0.000000000000000e+00 0.000000000000000e+00 5.000000000000000e-01
5.000000000000000e-01 -5.000000000000000e-01 5.000000000000000e-01
5.000000000000000e-01 -5.000000000000000e-01 0.000000000000000e+00
5.000000000000000e-01 0.000000000000000e+00 0.000000000000000e+00
5.000000000000000e-01 0.000000000000000e+00 5.000000000000000e-01
0.000000000000000e+00 0.000000000000000e+00 1.000000000000000e+00
0.000000000000000e+00 0.000000000000000e+00 5.000000000000000e-01
0.000000000000000e+00 5.000000000000000e-01 5.000000000000000e-01
0.000000000000000e+00 5.000000000000000e-01 1.000000000000000e+00
5.000000000000000e-01 0.000000000000000e+00 1.000000000000000e+00
5.000000000000000e-01 0.000000000000000e+00 5.000000000000000e-01
5.000000000000000e-01 5.000000000000000e-01 5.000000000000000e-01
5.000000000000000e-01 5.000000000000000e-01 1.000000000000000e+00
0.000000000000000e+00 0.000000000000000e+00 5.000000000000000e-01
0.000000000000000e+00 0.000000000000000e+00 0.000000000000000e+00
0.000000000000000e+00 5.000000000000000e-01 0.000000000000000e+00
0.000000000000000e+00 5.000000000000000e-01 5.000000000000000e-01
5.000000000000000e-01 0.000000000000000e+00 5.000000000000000e-01
5.000000000000000e-01 0.000000000000000e+00 0.000000000000000e+00
5.000000000000000e-01 5.000000000000000e-01 0.000000000000000e+00
5.000000000000000e-01 5.000000000000000e-01 5.000000000000000e-01
        </DataArray>
      </Points>

      <Cells>
        <DataArray type="Int32" Name="connectivity" format="ascii">
0 1 2 3 4 5 6 7 8 9 10 11 12 13 14 15 16 17 18 19 20 21 22 23 24 25 26 27 28 29 30 31 32 33 34 35 36 37 38 39 40 41 42 43 44 45 46 47 48 49 50 51 52 53 54 55 56 57 58 59 60 61 62 63 
        </DataArray>
        <DataArray type="Int32" Name="offsets" format="ascii">
8 16 24 32 40 48 56 64 
        </DataArray>
        <DataArray type="UInt8" Name="types" format="ascii">
12 12 12 12 12 12 12 12 
        </DataArray>
      </Cells>

  <PointData>
        <DataArray type="Float64" Name="displacement" NumberOfComponents="3" format="ascii">
0.000000000000000e+00 0.000000000000000e+00 -4.547581145039600e-03
0.000000000000000e+00 0.000000000000000e+00 1.089672759756135e-03
0.000000000000000e+00 0.000000000000000e+00 2.163979188136533e-04
0.000000000000000e+00 0.000000000000000e+00 -1.011553679448094e-03
0.000000000000000e+00 0.000000000000000e+00 -1.011553679448065e-03
0.000000000000000e+00 0.000000000000000e+00 2.163979188136415e-04
-8.936312715961444e-19 2.723488941734807e-19 3.348460448574484e-03
-4.211447053907560e-18 -1.502406942377717e-17 -1.367968362870002e-02
0.000000000000000e+00 0.000000000000000e+00 1.089672759756135e-03
0.000000000000000e+00 0.000000000000000e+00 0.000000000000000e+00
0.000000000000000e+00 0.000000000000000e+00 0.000000000000000e+00
0.000000000000000e+00 0.000000000000000e+00 2.163979188136533e-04
0.000000000000000e+00 0.000000000000000e+00 2.163979188136415e-04
0.000000000000000e+00 0.000000000000000e+00 0.000000000000000e+00
0.000000000000000e+00 0.000000000000000e+00 0.000000000000000e+00
-8.936312715961444e-19 2.723488941734807e-19 3.348460448574484e-03
0.000000000000000e+00 0.000000000000000e+00 -1.011553679448094e-03
0.000000000000000e+00 0.000000000000000e+00 2.163979188136533e-04
0.000000000000000e+00 0.000000000000000e+00 1.089672759756127e-03
0.000000000000000e+00 0.000000000000000e+00 -4.547581145039579e-03
-4.211447053907560e-18 -1.502406942377717e-17 -1.367968362870002e-02
-8.936312715961444e-19 2.723488941734807e-19 3.348460448574484e-03
0.000000000000000e+00 0.000000000000000e+00 2.163979188136368e-04
0.000000000000000e+00 0.000000000000000e+00 -1.011553679448068e-03
0.000000000000000e+00 0.000000000000000e+00 2.163979188136533e-04
0.000000000000000e+00 0.000000000000000e+00 0.000000000000000e+00
0.000000000000000e+00 0.000000000000000e+00 0.000000000000000e+00
0.000000000000000e+00 0.000000000000000e+00 1.089672759756127e-03
-8.936312715961444e-19 2.723488941734807e-19 3.348460448574484e-03
0.000000000000000e+00 0.000000000000000e+00 0.000000000000000e+00
0.000000000000000e+00 0.000000000000000e+00 0.000000000000000e+00
0.000000000000000e+00 0.000000000000000e+00 2.163979188136368e-04
0.000000000000000e+00 0.000000000000000e+00 -1.011553679448065e-03
0.000000000000000e+00 0.000000000000000e+00 2.163979188136415e-04
-8.936312715961444e-19 2.723488941734807e-19 3.348460448574484e-03
-4.211447053907560e-18 -1.502406942377717e-17 -1.367968362870002e-02
0.000000000000000e+00 0.000000000000000e+00 -4.547581145039562e-03
0.000000000000000e+00 0.000000000000000e+00 1.089672759756113e-03
0.000000000000000e+00 0.000000000000000e+00 2.163979188136572e-04
0.000000000000000e+00 0.000000000000000e+00 -1.011553679448066e-03
0.000000000000000e+00 0.000000000000000e+00 2.163979188136415e-04
0.000000000000000e+00 0.000000000000000e+00 0.000000000000000e+00
0.000000000000000e+00 0.000000000000000e+00 0.000000000000000e+00
-8.936312715961444e-19 2.723488941734807e-19 3.348460448574484e-03
0.000000000000000e+00 0.000000000000000e+00 1.089672759756113e-03
0.000000000000000e+00 0.000000000000000e+00 0.000000000000000e+00
0.000000000000000e+00 0.000000000000000e+00 0.000000000000000e+00
0.000000000000000e+00 0.000000000000000e+00 2.163979188136572e-04
-4.211447053907560e-18 -1.502406942377717e-17 -1.367968362870002e-02
-8.936312715961444e-19 2.723488941734807e-19 3.348460448574484e-03
0.000000000000000e+00 0.000000000000000e+00 2.163979188136368e-04
0.000000000000000e+00 0.000000000000000e+00 -1.011553679448068e-03
0.000000000000000e+00 0.000000000000000e+00 -1.011553679448066e-03
0.000000000000000e+00 0.000000000000000e+00 2.163979188136572e-04
0.000000000000000e+00 0.000000000000000e+00 1.089672759756120e-03
0.000000000000000e+00 0.000000000000000e+00 -4.547581145039547e-03
-8.936312715961444e-19 2.723488941734807e-19 3.348460448574484e-03
0.000000000000000e+00 0.000000000000000e+00 0.000000000000000e+00
0.000000000000000e+00 0.000000000000000e+00 0.000000000000000e+00
0.000000000000000e+00 0.000000000000000e+00 2.163979188136368e-04
0.000000000000000e+00 0.000000000000000e+00 2.163979188136572e-04
0.000000000000000e+00 0.000000000000000e+00 0.000000000000000e+00
0.000000000000000e+00 0.000000000000000e+00 0.000000000000000e+00
0.000000000000000e+00 0.000000000000000e+00 1.089672759756120e-03
        </DataArray>
      </PointData>

    </Piece>
  </UnstructuredGrid>
</VTKFile>
