<?xml version="1.0" ?> 
<!-- 
# vtk DataFile Version 3.0
-->
<VTKFile type="UnstructuredGrid" version="0.1" compressor="vtkZLibDataCompressor" byte_order="LittleEndian">
  <UnstructuredGrid>
    <FieldData>
      <DataArray type="Float64" Name="TIME" NumberOfTuples="1" format="ascii">
6.250000000000001e-02 
      </DataArray>
    </FieldData>

    <Piece NumberOfPoints="64" NumberOfCells="8" >
      <Points>
        <DataArray type="Float64" NumberOfComponents="3" format="ascii">
-5.000000000000000e-01 -5.000000000000000e-01 1.000000000000000e+00
-5.000000000000000e-01 -5.000000000000000e-01 5.000000000000000e-01
-5.000000000000000e-01 0.000000000000000e+00 5.000000000000000e-01
-5.000000000000000e-01 0.000000000000000e+00 1.000000000000000e+00
0.000000000000000e+00 -5.000000000000000e-01 1.000000000000000e+00
0.000000000000000e+00 -5.000000000000000e-01 5.000000000000000e-01
0.000000000000000e+00 0.000000000000000e+00 5.000000000000000e-01
0.000000000000000e+00 0.000000000000000e+00 1.000000000000000e+00
-5.000000000000000e-01 -5.000000000000000e-01 5.000000000000000e-01
-5.000000000000000e-01 -5.000000000000000e-01 0.000000000000000e+00
-5.000000000000000e-01 0.000000000000000e+00 0.000000000000000e+00
-5.000000000000000e-01 0.000000000000000e+00 5.000000000000000e-01
0.000000000000000e+00 -5.000000000000000e-01 5.000000000000000e-01
0.000000000000000e+00 -5.000000000000000e-01 0.000000000000000e+00
0.000000000000000e+00 0.000000000000000e+00 0.000000000000000e+00
0.000000000000000e+00 0.000000000000000e+00 5.000000000000000e-01
-5.000000000000000e-01 0.000000000000000e+00 1.000000000000000e+00
-5.000000000000000e-01 0.000000000000000e+00 5.000000000000000e-01
-5.000000000000000e-01 5.000000000000000e-01 5.000000000000000e-01
-5.000000000000000e-01 5.000000000000000e-01 1.000000000000000e+00
0.000000000000000e+00 0.000000000000000e+00 1.000000000000000e+00
0.000000000000000e+00 0.000000000000000e+00 5.000000000000000e-01
0.000000000000000e+00 5.000000000000000e-01 5.000000000000000e-01
0.000000000000000e+00 5.000000000000000e-01 1.000000000000000e+00
-5.000000000000000e-01 0.000000000000000e+00 5.000000000000000e-01
-5.000000000000000e-01 0.000000000000000e+00 0.000000000000000e+00
-5.000000000000000e-01 5.000000000000000e-01 0.000000000000000e+00
-5.000000000000000e-01 5.000000000000000e-01 5.000000000000000e-01
0.000000000000000e+00 0.000000000000000e+00 5.000000000000000e-01
0.000000000000000e+00 0.000000000000000e+00 0.000000000000000e+00
0.000000000000000e+00 5.000000000000000e-01 0.000000000000000e+00
0.000000000000000e+00 5.000000000000000e-01 5.000000000000000e-01
0.000000000000000e+00 -5.000000000000000e-01 1.000000000000000e+00
0.000000000000000e+00 -5.000000000000000e-01 5.000000000000000e-01
0.000000000000000e+00 0.000000000000000e+00 5.000000000000000e-01
0.000000000000000e+00 0.000000000000000e+00 1.000000000000000e+00
5.000000000000000e-01 -5.000000000000000e-01 1.000000000000000e+00
5.000000000000000e-01 -5.000000000000000e-01 5.000000000000000e-01
5.000000000000000e-01 0.000000000000000e+00 5.000000000000000e-01
5.000000000000000e-01 0.000000000000000e+00 1.000000000000000e+00
0.000000000000000e+00 -5.000000000000000e-01 5.000000000000000e-01
0.000000000000000e+00 -5.000000000000000e-01 0.000000000000000e+00
0.000000000000000e+00 0.000000000000000e+00 0.000000000000000e+00
0.000000000000000e+00 0.000000000000000e+00 5.000000000000000e-01
5.000000000000000e-01 -5.000000000000000e-01 5.000000000000000e-01
5.000000000000000e-01 -5.000000000000000e-01 0.000000000000000e+00
5.000000000000000e-01 0.000000000000000e+00 0.000000000000000e+00
5.000000000000000e-01 0.000000000000000e+00 5.000000000000000e-01
0.000000000000000e+00 0.000000000000000e+00 1.000000000000000e+00
0.000000000000000e+00 0.000000000000000e+00 5.000000000000000e-01
0.000000000000000e+00 5.000000000000000e-01 5.000000000000000e-01
0.000000000000000e+00 5.000000000000000e-01 1.000000000000000e+00
5.000000000000000e-01 0.000000000000000e+00 1.000000000000000e+00
5.000000000000000e-01 0.000000000000000e+00 5.000000000000000e-01
5.000000000000000e-01 5.000000000000000e-01 5.000000000000000e-01
5.000000000000000e-01 5.000000000000000e-01 1.000000000000000e+00
0.000000000000000e+00 0.000000000000000e+00 5.000000000000000e-01
0.000000000000000e+00 0.000000000000000e+00 0.000000000000000e+00
0.000000000000000e+00 5.000000000000000e-01 0.000000000000000e+00
0.000000000000000e+00 5.000000000000000e-01 5.000000000000000e-01
5.000000000000000e-01 0.000000000000000e+00 5.000000000000000e-01
5.000000000000000e-01 0.000000000000000e+00 0.000000000000000e+00
5.000000000000000e-01 5.000000000000000e-01 0.000000000000000e+00
5.000000000000000e-01 5.000000000000000e-01 5.000000000000000e-01
        </DataArray>
      </Points>

      <Cells>
        <DataArray type="Int32" Name="connectivity" format="ascii">
0 1 2 3 4 5 6 7 8 9 10 11 12 13 14 15 16 17 18 19 20 21 22 23 24 25 26 27 28 29 30 31 32 33 34 35 36 37 38 39 40 41 42 43 44 45 46 47 48 49 50 51 52 53 54 55 56 57 58 59 60 61 62 63 
        </DataArray>
        <DataArray type="Int32" Name="offsets" format="ascii">
8 16 24 32 40 48 56 64 
        </DataArray>
        <DataArray type="UInt8" Name="types" format="ascii">
12 12 12 12 12 12 12 12 
        </DataArray>
      </Cells>

  <PointData>
        <DataArray type="Float64" Name="displacement" NumberOfComponents="3" format="ascii">
0.000000000000000e+00 0.000000000000000e+00 -1.020944368284470e-03
0.000000000000000e+00 0.000000000000000e+00 2.516809732281625e-04
0.000000000000000e+00 0.000000000000000e+00 2.386609786941403e-04
0.000000000000000e+00 0.000000000000000e+00 -9.711278060084354e-04
0.000000000000000e+00 0.000000000000000e+00 -9.711278060084029e-04
0.000000000000000e+00 0.000000000000000e+00 2.386609786941305e-04
-8.578427706679120e-20 1.916766814478132e-19 2.528172529210753e-04
-1.588862419091286e-18 -4.336744933214658e-18 -1.018831047859206e-03
0.000000000000000e+00 0.000000000000000e+00 2.516809732281625e-04
0.000000000000000e+00 0.000000000000000e+00 0.000000000000000e+00
0.000000000000000e+00 0.000000000000000e+00 0.000000000000000e+00
0.000000000000000e+00 0.000000000000000e+00 2.386609786941403e-04
0.000000000000000e+00 0.000000000000000e+00 2.386609786941305e-04
0.000000000000000e+00 0.000000000000000e+00 0.000000000000000e+00
0.000000000000000e+00 0.000000000000000e+00 0.000000000000000e+00
-8.578427706679120e-20 1.916766814478132e-19 2.528172529210753e-04
0.000000000000000e+00 0.000000000000000e+00 -9.711278060084354e-04
0.000000000000000e+00 0.000000000000000e+00 2.386609786941403e-04
0.000000000000000e+00 0.000000000000000e+00 2.516809732281621e-04
0.000000000000000e+00 0.000000000000000e+00 -1.020944368284464e-03
-1.588862419091286e-18 -4.336744933214658e-18 -1.018831047859206e-03
-8.578427706679120e-20 1.916766814478132e-19 2.528172529210753e-04
0.000000000000000e+00 0.000000000000000e+00 2.386609786941349e-04
0.000000000000000e+00 0.000000000000000e+00 -9.711278060084192e-04
0.000000000000000e+00 0.000000000000000e+00 2.386609786941403e-04
0.000000000000000e+00 0.000000000000000e+00 0.000000000000000e+00
0.000000000000000e+00 0.000000000000000e+00 0.000000000000000e+00
0.000000000000000e+00 0.000000000000000e+00 2.516809732281621e-04
-8.578427706679120e-20 1.916766814478132e-19 2.528172529210753e-04
0.000000000000000e+00 0.000000000000000e+00 0.000000000000000e+00
0.000000000000000e+00 0.000000000000000e+00 0.000000000000000e+00
0.000000000000000e+00 0.000000000000000e+00 2.386609786941349e-04
0.000000000000000e+00 0.000000000000000e+00 -9.711278060084029e-04
0.000000000000000e+00 0.000000000000000e+00 2.386609786941305e-04
-8.578427706679120e-20 1.916766814478132e-19 2.528172529210753e-04
-1.588862419091286e-18 -4.336744933214658e-18 -1.018831047859206e-03
0.000000000000000e+00 0.000000000000000e+00 -1.020944368284488e-03
0.000000000000000e+00 0.000000000000000e+00 2.516809732281683e-04
0.000000000000000e+00 0.000000000000000e+00 2.386609786941385e-04
0.000000000000000e+00 0.000000000000000e+00 -9.711278060084245e-04
0.000000000000000e+00 0.000000000000000e+00 2.386609786941305e-04
0.000000000000000e+00 0.000000000000000e+00 0.000000000000000e+00
0.000000000000000e+00 0.000000000000000e+00 0.000000000000000e+00
-8.578427706679120e-20 1.916766814478132e-19 2.528172529210753e-04
0.000000000000000e+00 0.000000000000000e+00 2.516809732281683e-04
0.000000000000000e+00 0.000000000000000e+00 0.000000000000000e+00
0.000000000000000e+00 0.000000000000000e+00 0.000000000000000e+00
0.000000000000000e+00 0.000000000000000e+00 2.386609786941385e-04
-1.588862419091286e-18 -4.336744933214658e-18 -1.018831047859206e-03
-8.578427706679120e-20 1.916766814478132e-19 2.528172529210753e-04
0.000000000000000e+00 0.000000000000000e+00 2.386609786941349e-04
0.000000000000000e+00 0.000000000000000e+00 -9.711278060084192e-04
0.000000000000000e+00 0.000000000000000e+00 -9.711278060084245e-04
0.000000000000000e+00 0.000000000000000e+00 2.386609786941385e-04
0.000000000000000e+00 0.000000000000000e+00 2.516809732281694e-04
0.000000000000000e+00 0.000000000000000e+00 -1.020944368284493e-03
-8.578427706679120e-20 1.916766814478132e-19 2.528172529210753e-04
0.000000000000000e+00 0.000000000000000e+00 0.000000000000000e+00
0.000000000000000e+00 0.000000000000000e+00 0.000000000000000e+00
0.000000000000000e+00 0.000000000000000e+00 2.386609786941349e-04
0.000000000000000e+00 0.000000000000000e+00 2.386609786941385e-04
0.000000000000000e+00 0.000000000000000e+00 0.000000000000000e+00
0.000000000000000e+00 0.000000000000000e+00 0.000000000000000e+00
0.000000000000000e+00 0.000000000000000e+00 2.516809732281694e-04
        </DataArray>
      </PointData>

    </Piece>
  </UnstructuredGrid>
</VTKFile>
