<?xml version="1.0" ?> 
<!-- 
# vtk DataFile Version 3.0
-->
<VTKFile type="UnstructuredGrid" version="0.1" compressor="vtkZLibDataCompressor" byte_order="LittleEndian">
  <UnstructuredGrid>
    <FieldData>
      <DataArray type="Float64" Name="TIME" NumberOfTuples="1" format="ascii">
1.000000000000000e+00 
      </DataArray>
    </FieldData>

    <Piece NumberOfPoints="6048" NumberOfCells="756" >
      <Points>
        <DataArray type="Float64" NumberOfComponents="3" format="ascii">
-5.000000000000000e-01 2.041077998578922e-17 6.666666666666667e-02
-5.000000000000000e-01 4.082155997157843e-17 8.333333333333333e-02
-4.974344092443204e-01 5.058664349167646e-02 8.333333333333336e-02
-4.974344092443204e-01 5.058664349167646e-02 6.666666666666668e-02
-5.833333333333333e-01 1.020538999289461e-17 6.666666666666668e-02
-5.833333333333333e-01 2.041077998578921e-17 8.333333333333336e-02
-5.802408913036398e-01 5.900765721507015e-02 8.333333333333338e-02
-5.802408913036399e-01 5.900765721507014e-02 6.666666666666669e-02
-5.833333333333333e-01 1.020538999289461e-17 6.666666666666668e-02
-5.833333333333333e-01 2.041077998578921e-17 8.333333333333336e-02
-5.802408913036398e-01 5.900765721507015e-02 8.333333333333338e-02
-5.802408913036399e-01 5.900765721507014e-02 6.666666666666669e-02
-6.666666666666666e-01 -3.723464559148656e-33 6.666666666666668e-02
-6.666666666666665e-01 -4.750627196155181e-33 8.333333333333336e-02
-6.631324472041598e-01 6.743732253150872e-02 8.333333333333337e-02
-6.631324472041599e-01 6.743732253150872e-02 6.666666666666668e-02
-6.666666666666666e-01 -3.723464559148656e-33 6.666666666666668e-02
-6.666666666666665e-01 -4.750627196155181e-33 8.333333333333336e-02
-6.631324472041598e-01 6.743732253150872e-02 8.333333333333337e-02
-6.631324472041599e-01 6.743732253150872e-02 6.666666666666668e-02
-7.500000000000000e-01 -1.020538999289460e-17 6.666666666666667e-02
-7.500000000000000e-01 -2.041077998578921e-17 8.333333333333334e-02
-7.460240031046799e-01 7.586698784794726e-02 8.333333333333338e-02
-7.460240031046799e-01 7.586698784794729e-02 6.666666666666669e-02
-7.500000000000000e-01 -1.020538999289460e-17 6.666666666666667e-02
-7.500000000000000e-01 -2.041077998578921e-17 8.333333333333334e-02
-7.460240031046799e-01 7.586698784794726e-02 8.333333333333338e-02
-7.460240031046799e-01 7.586698784794729e-02 6.666666666666669e-02
-8.333333333333333e-01 -2.041077998578920e-17 6.666666666666667e-02
-8.333333333333333e-01 -4.082155997157842e-17 8.333333333333333e-02
-8.289155590052001e-01 8.429665316438585e-02 8.333333333333337e-02
-8.289155590052001e-01 8.429665316438588e-02 6.666666666666669e-02
-8.333333333333333e-01 -2.041077998578920e-17 6.666666666666667e-02
-8.333333333333333e-01 -4.082155997157842e-17 8.333333333333333e-02
-8.289155590052001e-01 8.429665316438585e-02 8.333333333333337e-02
-8.289155590052001e-01 8.429665316438588e-02 6.666666666666669e-02
-9.166666666666667e-01 -3.061616997868382e-17 6.666666666666667e-02
-9.166666666666666e-01 -6.123233995736764e-17 8.333333333333334e-02
-9.118071149057199e-01 9.272631848082444e-02 8.333333333333336e-02
-9.118071149057199e-01 9.272631848082447e-02 6.666666666666669e-02
-9.166666666666667e-01 -3.061616997868382e-17 6.666666666666667e-02
-9.166666666666666e-01 -6.123233995736764e-17 8.333333333333334e-02
-9.118071149057199e-01 9.272631848082444e-02 8.333333333333336e-02
-9.118071149057199e-01 9.272631848082447e-02 6.666666666666669e-02
-1.000000000000000e+00 -4.082155997157843e-17 6.666666666666667e-02
-1.000000000000000e+00 -8.164311994315686e-17 8.333333333333333e-02
-9.948688184886407e-01 1.011732869833526e-01 8.333333333333336e-02
-9.948688184886407e-01 1.011732869833527e-01 6.666666666666668e-02
-4.974344092443204e-01 5.058664349167646e-02 6.666666666666668e-02
-4.974344092443204e-01 5.058664349167646e-02 8.333333333333336e-02
-4.897639944706448e-01 1.006540099556805e-01 8.333333333333336e-02
-4.897639944706448e-01 1.006540099556805e-01 6.666666666666668e-02
-5.802408913036399e-01 5.900765721507014e-02 6.666666666666669e-02
-5.802408913036398e-01 5.900765721507015e-02 8.333333333333338e-02
-5.712023787303923e-01 1.173908465394211e-01 8.333333333333338e-02
-5.712023787303923e-01 1.173908465394211e-01 6.666666666666669e-02
-5.802408913036399e-01 5.900765721507014e-02 6.666666666666669e-02
-5.802408913036398e-01 5.900765721507015e-02 8.333333333333338e-02
-5.712023787303923e-01 1.173908465394211e-01 8.333333333333338e-02
-5.712023787303923e-01 1.173908465394211e-01 6.666666666666669e-02
-6.631324472041599e-01 6.743732253150872e-02 6.666666666666668e-02
-6.631324472041598e-01 6.743732253150872e-02 8.333333333333337e-02
-6.528027185490198e-01 1.341609674736241e-01 8.333333333333337e-02
-6.528027185490197e-01 1.341609674736240e-01 6.666666666666669e-02
-6.631324472041599e-01 6.743732253150872e-02 6.666666666666668e-02
-6.631324472041598e-01 6.743732253150872e-02 8.333333333333337e-02
-6.528027185490198e-01 1.341609674736241e-01 8.333333333333337e-02
-6.528027185490197e-01 1.341609674736240e-01 6.666666666666669e-02
-7.460240031046799e-01 7.586698784794729e-02 6.666666666666669e-02
-7.460240031046799e-01 7.586698784794726e-02 8.333333333333338e-02
-7.344030583676471e-01 1.509310884078270e-01 8.333333333333336e-02
-7.344030583676472e-01 1.509310884078270e-01 6.666666666666669e-02
-7.460240031046799e-01 7.586698784794729e-02 6.666666666666669e-02
-7.460240031046799e-01 7.586698784794726e-02 8.333333333333338e-02
-7.344030583676471e-01 1.509310884078270e-01 8.333333333333336e-02
-7.344030583676472e-01 1.509310884078270e-01 6.666666666666669e-02
-8.289155590052001e-01 8.429665316438588e-02 6.666666666666669e-02
-8.289155590052001e-01 8.429665316438585e-02 8.333333333333337e-02
-8.160033981862748e-01 1.677012093420300e-01 8.333333333333336e-02
-8.160033981862749e-01 1.677012093420300e-01 6.666666666666665e-02
-8.289155590052001e-01 8.429665316438588e-02 6.666666666666669e-02
-8.289155590052001e-01 8.429665316438585e-02 8.333333333333337e-02
-8.160033981862748e-01 1.677012093420300e-01 8.333333333333336e-02
-8.160033981862749e-01 1.677012093420300e-01 6.666666666666665e-02
-9.118071149057199e-01 9.272631848082447e-02 6.666666666666669e-02
-9.118071149057199e-01 9.272631848082444e-02 8.333333333333336e-02
-8.976037380049023e-01 1.844713302762329e-01 8.333333333333336e-02
-8.976037380049022e-01 1.844713302762330e-01 6.666666666666665e-02
-9.118071149057199e-01 9.272631848082447e-02 6.666666666666669e-02
-9.118071149057199e-01 9.272631848082444e-02 8.333333333333336e-02
-8.976037380049023e-01 1.844713302762329e-01 8.333333333333336e-02
-8.976037380049022e-01 1.844713302762330e-01 6.666666666666665e-02
-9.948688184886407e-01 1.011732869833527e-01 6.666666666666668e-02
-9.948688184886407e-01 1.011732869833526e-01 8.333333333333336e-02
-9.795279889412897e-01 2.013080199113610e-01 8.333333333333336e-02
-9.795279889412897e-01 2.013080199113610e-01 6.666666666666667e-02
-4.897639944706448e-01 1.006540099556805e-01 6.666666666666668e-02
-4.897639944706448e-01 1.006540099556805e-01 8.333333333333336e-02
-4.770675671189800e-01 1.496881304685763e-01 8.333333333333333e-02
-4.770675671189800e-01 1.496881304685763e-01 6.666666666666667e-02
-5.712023787303923e-01 1.173908465394211e-01 6.666666666666669e-02
-5.712023787303923e-01 1.173908465394211e-01 8.333333333333338e-02
-5.563122513433851e-01 1.745525091199246e-01 8.333333333333338e-02
-5.563122513433851e-01 1.745525091199246e-01 6.666666666666669e-02
-5.712023787303923e-01 1.173908465394211e-01 6.666666666666669e-02
-5.712023787303923e-01 1.173908465394211e-01 8.333333333333338e-02
-5.563122513433851e-01 1.745525091199246e-01 8.333333333333338e-02
-5.563122513433851e-01 1.745525091199246e-01 6.666666666666669e-02
-6.528027185490197e-01 1.341609674736240e-01 6.666666666666669e-02
-6.528027185490198e-01 1.341609674736241e-01 8.333333333333337e-02
-6.357854301067257e-01 1.994885818513424e-01 8.333333333333337e-02
-6.357854301067257e-01 1.994885818513424e-01 6.666666666666669e-02
-6.528027185490197e-01 1.341609674736240e-01 6.666666666666669e-02
-6.528027185490198e-01 1.341609674736241e-01 8.333333333333337e-02
-6.357854301067257e-01 1.994885818513424e-01 8.333333333333337e-02
-6.357854301067257e-01 1.994885818513424e-01 6.666666666666669e-02
-7.344030583676472e-01 1.509310884078270e-01 6.666666666666669e-02
-7.344030583676471e-01 1.509310884078270e-01 8.333333333333336e-02
-7.152586088700663e-01 2.244246545827601e-01 8.333333333333336e-02
-7.152586088700663e-01 2.244246545827601e-01 6.666666666666669e-02
-7.344030583676472e-01 1.509310884078270e-01 6.666666666666669e-02
-7.344030583676471e-01 1.509310884078270e-01 8.333333333333336e-02
-7.152586088700663e-01 2.244246545827601e-01 8.333333333333336e-02
-7.152586088700663e-01 2.244246545827601e-01 6.666666666666669e-02
-8.160033981862749e-01 1.677012093420300e-01 6.666666666666665e-02
-8.160033981862748e-01 1.677012093420300e-01 8.333333333333336e-02
-7.947317876334070e-01 2.493607273141778e-01 8.333333333333336e-02
-7.947317876334070e-01 2.493607273141779e-01 6.666666666666668e-02
-8.160033981862749e-01 1.677012093420300e-01 6.666666666666665e-02
-8.160033981862748e-01 1.677012093420300e-01 8.333333333333336e-02
-7.947317876334070e-01 2.493607273141778e-01 8.333333333333336e-02
-7.947317876334070e-01 2.493607273141779e-01 6.666666666666668e-02
-8.976037380049022e-01 1.844713302762330e-01 6.666666666666665e-02
-8.976037380049023e-01 1.844713302762329e-01 8.333333333333336e-02
-8.742049663967477e-01 2.742968000455955e-01 8.333333333333337e-02
-8.742049663967477e-01 2.742968000455956e-01 6.666666666666669e-02
-8.976037380049022e-01 1.844713302762330e-01 6.666666666666665e-02
-8.976037380049023e-01 1.844713302762329e-01 8.333333333333336e-02
-8.742049663967477e-01 2.742968000455955e-01 8.333333333333337e-02
-8.742049663967477e-01 2.742968000455956e-01 6.666666666666669e-02
-9.795279889412897e-01 2.013080199113610e-01 6.666666666666667e-02
[...]
  <PointData>
        <DataArray type="Float64" Name="conductivity" NumberOfComponents="9" format="ascii">
3.562789129165981e+00 5.273835439608392e-14 0.000000000000000e+00 5.273835439608392e-14 9.974372108708343e+02 0.000000000000000e+00 0.000000000000000e+00 0.000000000000000e+00 1.000000000000000e+00
3.562789129165980e+00 6.129051997382733e-14 0.000000000000000e+00 6.129051997382733e-14 9.974372108708343e+02 0.000000000000000e+00 0.000000000000000e+00 0.000000000000000e+00 1.000000000000000e+00
1.372952645305672e+01 1.000043166787709e+02 0.000000000000000e+00 1.000043166787709e+02 9.872704735469434e+02 0.000000000000000e+00 0.000000000000000e+00 0.000000000000000e+00 1.000000000000000e+00
1.372952645305671e+01 1.000043166787709e+02 0.000000000000000e+00 1.000043166787709e+02 9.872704735469435e+02 0.000000000000000e+00 0.000000000000000e+00 0.000000000000000e+00 1.000000000000000e+00
3.562680716910873e+00 3.837319132582364e-14 0.000000000000000e+00 3.837319132582364e-14 9.974373192830891e+02 0.000000000000000e+00 0.000000000000000e+00 0.000000000000000e+00 1.000000000000000e+00
3.562680716910874e+00 5.292853975975685e-14 0.000000000000000e+00 5.292853975975685e-14 9.974373192830892e+02 0.000000000000000e+00 0.000000000000000e+00 0.000000000000000e+00 1.000000000000000e+00
1.373182241206073e+01 1.000154707032168e+02 0.000000000000000e+00 1.000154707032168e+02 9.872681775879392e+02 0.000000000000000e+00 0.000000000000000e+00 0.000000000000000e+00 1.000000000000000e+00
1.373182241206073e+01 1.000154707032168e+02 0.000000000000000e+00 1.000154707032168e+02 9.872681775879395e+02 0.000000000000000e+00 0.000000000000000e+00 0.000000000000000e+00 1.000000000000000e+00
3.562680716910873e+00 3.837319132582364e-14 0.000000000000000e+00 3.837319132582364e-14 9.974373192830891e+02 0.000000000000000e+00 0.000000000000000e+00 0.000000000000000e+00 1.000000000000000e+00
3.562680716910874e+00 5.292853975975685e-14 0.000000000000000e+00 5.292853975975685e-14 9.974373192830892e+02 0.000000000000000e+00 0.000000000000000e+00 0.000000000000000e+00 1.000000000000000e+00
1.373182241206073e+01 1.000154707032168e+02 0.000000000000000e+00 1.000154707032168e+02 9.872681775879392e+02 0.000000000000000e+00 0.000000000000000e+00 0.000000000000000e+00 1.000000000000000e+00
1.373182241206073e+01 1.000154707032168e+02 0.000000000000000e+00 1.000154707032168e+02 9.872681775879395e+02 0.000000000000000e+00 0.000000000000000e+00 0.000000000000000e+00 1.000000000000000e+00
3.562586804129684e+00 3.472671518763948e-15 0.000000000000000e+00 3.472671518763948e-15 9.974374131958706e+02 0.000000000000000e+00 0.000000000000000e+00 0.000000000000000e+00 1.000000000000000e+00
3.562586804129683e+00 1.620580042089845e-14 0.000000000000000e+00 1.620580042089845e-14 9.974374131958702e+02 0.000000000000000e+00 0.000000000000000e+00 0.000000000000000e+00 1.000000000000000e+00
1.373381038925487e+01 1.000251285177433e+02 0.000000000000000e+00 1.000251285177433e+02 9.872661896107452e+02 0.000000000000000e+00 0.000000000000000e+00 0.000000000000000e+00 1.000000000000000e+00
1.373381038925488e+01 1.000251285177433e+02 0.000000000000000e+00 1.000251285177433e+02 9.872661896107453e+02 0.000000000000000e+00 0.000000000000000e+00 0.000000000000000e+00 1.000000000000000e+00
3.562586804129684e+00 3.472671518763948e-15 0.000000000000000e+00 3.472671518763948e-15 9.974374131958706e+02 0.000000000000000e+00 0.000000000000000e+00 0.000000000000000e+00 1.000000000000000e+00
3.562586804129683e+00 1.620580042089845e-14 0.000000000000000e+00 1.620580042089845e-14 9.974374131958702e+02 0.000000000000000e+00 0.000000000000000e+00 0.000000000000000e+00 1.000000000000000e+00
1.373381038925487e+01 1.000251285177433e+02 0.000000000000000e+00 1.000251285177433e+02 9.872661896107452e+02 0.000000000000000e+00 0.000000000000000e+00 0.000000000000000e+00 1.000000000000000e+00
1.373381038925488e+01 1.000251285177433e+02 0.000000000000000e+00 1.000251285177433e+02 9.872661896107453e+02 0.000000000000000e+00 0.000000000000000e+00 0.000000000000000e+00 1.000000000000000e+00
3.562586804129683e+00 -1.028939709263393e-14 0.000000000000000e+00 -1.028939709263393e-14 9.974374131958705e+02 0.000000000000000e+00 0.000000000000000e+00 0.000000000000000e+00 1.000000000000000e+00
3.562586804129682e+00 -2.057879418526787e-14 0.000000000000000e+00 -2.057879418526787e-14 9.974374131958702e+02 0.000000000000000e+00 0.000000000000000e+00 0.000000000000000e+00 1.000000000000000e+00
1.373381038925487e+01 1.000251285177433e+02 0.000000000000000e+00 1.000251285177433e+02 9.872661896107450e+02 0.000000000000000e+00 0.000000000000000e+00 0.000000000000000e+00 1.000000000000000e+00
1.373381038925488e+01 1.000251285177433e+02 0.000000000000000e+00 1.000251285177433e+02 9.872661896107452e+02 0.000000000000000e+00 0.000000000000000e+00 0.000000000000000e+00 1.000000000000000e+00
3.562586804129683e+00 -1.028939709263393e-14 0.000000000000000e+00 -1.028939709263393e-14 9.974374131958705e+02 0.000000000000000e+00 0.000000000000000e+00 0.000000000000000e+00 1.000000000000000e+00
3.562586804129682e+00 -2.057879418526787e-14 0.000000000000000e+00 -2.057879418526787e-14 9.974374131958702e+02 0.000000000000000e+00 0.000000000000000e+00 0.000000000000000e+00 1.000000000000000e+00
1.373381038925487e+01 1.000251285177433e+02 0.000000000000000e+00 1.000251285177433e+02 9.872661896107450e+02 0.000000000000000e+00 0.000000000000000e+00 0.000000000000000e+00 1.000000000000000e+00
1.373381038925488e+01 1.000251285177433e+02 0.000000000000000e+00 1.000251285177433e+02 9.872661896107452e+02 0.000000000000000e+00 0.000000000000000e+00 0.000000000000000e+00 1.000000000000000e+00
3.562586804129683e+00 -3.241160084179687e-14 0.000000000000000e+00 -3.333764658013393e-14 9.974374131958706e+02 0.000000000000000e+00 0.000000000000000e+00 0.000000000000000e+00 1.000000000000000e+00
3.562586804129682e+00 -5.185856134687505e-14 0.000000000000000e+00 -5.185856134687505e-14 9.974374131958702e+02 0.000000000000000e+00 0.000000000000000e+00 0.000000000000000e+00 1.000000000000000e+00
1.373381038925486e+01 1.000251285177432e+02 0.000000000000000e+00 1.000251285177433e+02 9.872661896107452e+02 0.000000000000000e+00 0.000000000000000e+00 0.000000000000000e+00 1.000000000000000e+00
1.373381038925487e+01 1.000251285177433e+02 0.000000000000000e+00 1.000251285177433e+02 9.872661896107452e+02 0.000000000000000e+00 0.000000000000000e+00 0.000000000000000e+00 1.000000000000000e+00
3.562586804129683e+00 -3.241160084179687e-14 0.000000000000000e+00 -3.333764658013393e-14 9.974374131958706e+02 0.000000000000000e+00 0.000000000000000e+00 0.000000000000000e+00 1.000000000000000e+00
3.562586804129682e+00 -5.185856134687505e-14 0.000000000000000e+00 -5.185856134687505e-14 9.974374131958702e+02 0.000000000000000e+00 0.000000000000000e+00 0.000000000000000e+00 1.000000000000000e+00
1.373381038925486e+01 1.000251285177432e+02 0.000000000000000e+00 1.000251285177433e+02 9.872661896107452e+02 0.000000000000000e+00 0.000000000000000e+00 0.000000000000000e+00 1.000000000000000e+00
1.373381038925487e+01 1.000251285177433e+02 0.000000000000000e+00 1.000251285177433e+02 9.872661896107452e+02 0.000000000000000e+00 0.000000000000000e+00 0.000000000000000e+00 1.000000000000000e+00
3.562706420599224e+00 -4.543499197729265e-14 0.000000000000000e+00 -4.627638071761288e-14 9.974372935794008e+02 0.000000000000000e+00 0.000000000000000e+00 0.000000000000000e+00 1.000000000000000e+00
3.562706420599223e+00 -8.329748529170328e-14 0.000000000000000e+00 -8.077331907074258e-14 9.974372935794008e+02 0.000000000000000e+00 0.000000000000000e+00 0.000000000000000e+00 1.000000000000000e+00
1.373953707274279e+01 1.000530138619687e+02 0.000000000000000e+00 1.000530138619688e+02 9.872604629272572e+02 0.000000000000000e+00 0.000000000000000e+00 0.000000000000000e+00 1.000000000000000e+00
1.373953707274280e+01 1.000530138619688e+02 0.000000000000000e+00 1.000530138619688e+02 9.872604629272572e+02 0.000000000000000e+00 0.000000000000000e+00 0.000000000000000e+00 1.000000000000000e+00
3.562706420599224e+00 -4.543499197729265e-14 0.000000000000000e+00 -4.627638071761288e-14 9.974372935794008e+02 0.000000000000000e+00 0.000000000000000e+00 0.000000000000000e+00 1.000000000000000e+00
3.562706420599223e+00 -8.329748529170328e-14 0.000000000000000e+00 -8.077331907074258e-14 9.974372935794008e+02 0.000000000000000e+00 0.000000000000000e+00 0.000000000000000e+00 1.000000000000000e+00
1.373953707274279e+01 1.000530138619687e+02 0.000000000000000e+00 1.000530138619688e+02 9.872604629272572e+02 0.000000000000000e+00 0.000000000000000e+00 0.000000000000000e+00 1.000000000000000e+00
1.373953707274280e+01 1.000530138619688e+02 0.000000000000000e+00 1.000530138619688e+02 9.872604629272572e+02 0.000000000000000e+00 0.000000000000000e+00 0.000000000000000e+00 1.000000000000000e+00
3.562815518797925e+00 -4.182857620642376e-14 0.000000000000000e+00 -3.861099342131424e-14 9.974371844812021e+02 0.000000000000000e+00 0.000000000000000e+00 0.000000000000000e+00 1.000000000000000e+00
3.562815518797924e+00 -8.365715241284759e-14 0.000000000000000e+00 -8.043956962773808e-14 9.974371844812019e+02 0.000000000000000e+00 0.000000000000000e+00 0.000000000000000e+00 1.000000000000000e+00
1.374475479277505e+01 1.000784208745054e+02 0.000000000000000e+00 1.000784208745054e+02 9.872552452072247e+02 0.000000000000000e+00 0.000000000000000e+00 0.000000000000000e+00 1.000000000000000e+00
1.374475479277506e+01 1.000784208745055e+02 0.000000000000000e+00 1.000784208745055e+02 9.872552452072248e+02 0.000000000000000e+00 0.000000000000000e+00 0.000000000000000e+00 1.000000000000000e+00
1.372952645305671e+01 1.000043166787709e+02 0.000000000000000e+00 1.000043166787709e+02 9.872704735469435e+02 0.000000000000000e+00 0.000000000000000e+00 0.000000000000000e+00 1.000000000000000e+00
1.372952645305672e+01 1.000043166787709e+02 0.000000000000000e+00 1.000043166787709e+02 9.872704735469434e+02 0.000000000000000e+00 0.000000000000000e+00 0.000000000000000e+00 1.000000000000000e+00
4.382712601301314e+01 1.959496526979865e+02 0.000000000000000e+00 1.959496526979865e+02 9.571728739869869e+02 0.000000000000000e+00 0.000000000000000e+00 0.000000000000000e+00 1.000000000000000e+00
4.382712601301310e+01 1.959496526979864e+02 0.000000000000000e+00 1.959496526979864e+02 9.571728739869870e+02 0.000000000000000e+00 0.000000000000000e+00 0.000000000000000e+00 1.000000000000000e+00
1.373182241206073e+01 1.000154707032168e+02 0.000000000000000e+00 1.000154707032168e+02 9.872681775879395e+02 0.000000000000000e+00 0.000000000000000e+00 0.000000000000000e+00 1.000000000000000e+00
1.373182241206073e+01 1.000154707032168e+02 0.000000000000000e+00 1.000154707032168e+02 9.872681775879392e+02 0.000000000000000e+00 0.000000000000000e+00 0.000000000000000e+00 1.000000000000000e+00
4.383131923977955e+01 1.959594145004943e+02 0.000000000000000e+00 1.959594145004943e+02 9.571686807602204e+02 0.000000000000000e+00 0.000000000000000e+00 0.000000000000000e+00 1.000000000000000e+00
4.383131923977953e+01 1.959594145004943e+02 0.000000000000000e+00 1.959594145004943e+02 9.571686807602204e+02 0.000000000000000e+00 0.000000000000000e+00 0.000000000000000e+00 1.000000000000000e+00
1.373182241206073e+01 1.000154707032168e+02 0.000000000000000e+00 1.000154707032168e+02 9.872681775879395e+02 0.000000000000000e+00 0.000000000000000e+00 0.000000000000000e+00 1.000000000000000e+00
1.373182241206073e+01 1.000154707032168e+02 0.000000000000000e+00 1.000154707032168e+02 9.872681775879392e+02 0.000000000000000e+00 0.000000000000000e+00 0.000000000000000e+00 1.000000000000000e+00
4.383131923977955e+01 1.959594145004943e+02 0.000000000000000e+00 1.959594145004943e+02 9.571686807602204e+02 0.000000000000000e+00 0.000000000000000e+00 0.000000000000000e+00 1.000000000000000e+00
4.383131923977953e+01 1.959594145004943e+02 0.000000000000000e+00 1.959594145004943e+02 9.571686807602204e+02 0.000000000000000e+00 0.000000000000000e+00 0.000000000000000e+00 1.000000000000000e+00
1.373381038925488e+01 1.000251285177433e+02 0.000000000000000e+00 1.000251285177433e+02 9.872661896107453e+02 0.000000000000000e+00 0.000000000000000e+00 0.000000000000000e+00 1.000000000000000e+00
1.373381038925487e+01 1.000251285177433e+02 0.000000000000000e+00 1.000251285177433e+02 9.872661896107452e+02 0.000000000000000e+00 0.000000000000000e+00 0.000000000000000e+00 1.000000000000000e+00
4.383494676789086e+01 1.959678593604999e+02 0.000000000000000e+00 1.959678593605000e+02 9.571650532321089e+02 0.000000000000000e+00 0.000000000000000e+00 0.000000000000000e+00 1.000000000000000e+00
4.383494676789087e+01 1.959678593605000e+02 0.000000000000000e+00 1.959678593605000e+02 9.571650532321091e+02 0.000000000000000e+00 0.000000000000000e+00 0.000000000000000e+00 1.000000000000000e+00
1.373381038925488e+01 1.000251285177433e+02 0.000000000000000e+00 1.000251285177433e+02 9.872661896107453e+02 0.000000000000000e+00 0.000000000000000e+00 0.000000000000000e+00 1.000000000000000e+00
1.373381038925487e+01 1.000251285177433e+02 0.000000000000000e+00 1.000251285177433e+02 9.872661896107452e+02 0.000000000000000e+00 0.000000000000000e+00 0.000000000000000e+00 1.000000000000000e+00
4.383494676789086e+01 1.959678593604999e+02 0.000000000000000e+00 1.959678593605000e+02 9.571650532321089e+02 0.000000000000000e+00 0.000000000000000e+00 0.000000000000000e+00 1.000000000000000e+00
4.383494676789087e+01 1.959678593605000e+02 0.000000000000000e+00 1.959678593605000e+02 9.571650532321091e+02 0.000000000000000e+00 0.000000000000000e+00 0.000000000000000e+00 1.000000000000000e+00
1.373381038925488e+01 1.000251285177433e+02 0.000000000000000e+00 1.000251285177433e+02 9.872661896107452e+02 0.000000000000000e+00 0.000000000000000e+00 0.000000000000000e+00 1.000000000000000e+00
1.373381038925487e+01 1.000251285177433e+02 0.000000000000000e+00 1.000251285177433e+02 9.872661896107450e+02 0.000000000000000e+00 0.000000000000000e+00 0.000000000000000e+00 1.000000000000000e+00
4.383494676789083e+01 1.959678593604999e+02 0.000000000000000e+00 1.959678593605000e+02 9.571650532321094e+02 0.000000000000000e+00 0.000000000000000e+00 0.000000000000000e+00 1.000000000000000e+00
4.383494676789085e+01 1.959678593605000e+02 0.000000000000000e+00 1.959678593605000e+02 9.571650532321092e+02 0.000000000000000e+00 0.000000000000000e+00 0.000000000000000e+00 1.000000000000000e+00
1.373381038925488e+01 1.000251285177433e+02 0.000000000000000e+00 1.000251285177433e+02 9.872661896107452e+02 0.000000000000000e+00 0.000000000000000e+00 0.000000000000000e+00 1.000000000000000e+00
1.373381038925487e+01 1.000251285177433e+02 0.000000000000000e+00 1.000251285177433e+02 9.872661896107450e+02 0.000000000000000e+00 0.000000000000000e+00 0.000000000000000e+00 1.000000000000000e+00
4.383494676789083e+01 1.959678593604999e+02 0.000000000000000e+00 1.959678593605000e+02 9.571650532321094e+02 0.000000000000000e+00 0.000000000000000e+00 0.000000000000000e+00 1.000000000000000e+00
4.383494676789085e+01 1.959678593605000e+02 0.000000000000000e+00 1.959678593605000e+02 9.571650532321092e+02 0.000000000000000e+00 0.000000000000000e+00 0.000000000000000e+00 1.000000000000000e+00
1.373381038925487e+01 1.000251285177433e+02 0.000000000000000e+00 1.000251285177433e+02 9.872661896107452e+02 0.000000000000000e+00 0.000000000000000e+00 0.000000000000000e+00 1.000000000000000e+00
1.373381038925486e+01 1.000251285177432e+02 0.000000000000000e+00 1.000251285177433e+02 9.872661896107452e+02 0.000000000000000e+00 0.000000000000000e+00 0.000000000000000e+00 1.000000000000000e+00
4.383494676789082e+01 1.959678593604999e+02 0.000000000000000e+00 1.959678593604999e+02 9.571650532321094e+02 0.000000000000000e+00 0.000000000000000e+00 0.000000000000000e+00 1.000000000000000e+00
4.383494676789083e+01 1.959678593604999e+02 0.000000000000000e+00 1.959678593604999e+02 9.571650532321090e+02 0.000000000000000e+00 0.000000000000000e+00 0.000000000000000e+00 1.000000000000000e+00
1.373381038925487e+01 1.000251285177433e+02 0.000000000000000e+00 1.000251285177433e+02 9.872661896107452e+02 0.000000000000000e+00 0.000000000000000e+00 0.000000000000000e+00 1.000000000000000e+00
1.373381038925486e+01 1.000251285177432e+02 0.000000000000000e+00 1.000251285177433e+02 9.872661896107452e+02 0.000000000000000e+00 0.000000000000000e+00 0.000000000000000e+00 1.000000000000000e+00
4.383494676789082e+01 1.959678593604999e+02 0.000000000000000e+00 1.959678593604999e+02 9.571650532321094e+02 0.000000000000000e+00 0.000000000000000e+00 0.000000000000000e+00 1.000000000000000e+00
4.383494676789083e+01 1.959678593604999e+02 0.000000000000000e+00 1.959678593604999e+02 9.571650532321090e+02 0.000000000000000e+00 0.000000000000000e+00 0.000000000000000e+00 1.000000000000000e+00
1.373953707274280e+01 1.000530138619688e+02 0.000000000000000e+00 1.000530138619688e+02 9.872604629272572e+02 0.000000000000000e+00 0.000000000000000e+00 0.000000000000000e+00 1.000000000000000e+00
1.373953707274279e+01 1.000530138619687e+02 0.000000000000000e+00 1.000530138619688e+02 9.872604629272572e+02 0.000000000000000e+00 0.000000000000000e+00 0.000000000000000e+00 1.000000000000000e+00
4.384539217076135e+01 1.959922091251163e+02 0.000000000000000e+00 1.959922091251163e+02 9.571546078292388e+02 0.000000000000000e+00 0.000000000000000e+00 0.000000000000000e+00 1.000000000000000e+00
4.384539217076136e+01 1.959922091251163e+02 0.000000000000000e+00 1.959922091251163e+02 9.571546078292386e+02 0.000000000000000e+00 0.000000000000000e+00 0.000000000000000e+00 1.000000000000000e+00
1.373953707274280e+01 1.000530138619688e+02 0.000000000000000e+00 1.000530138619688e+02 9.872604629272572e+02 0.000000000000000e+00 0.000000000000000e+00 0.000000000000000e+00 1.000000000000000e+00
1.373953707274279e+01 1.000530138619687e+02 0.000000000000000e+00 1.000530138619688e+02 9.872604629272572e+02 0.000000000000000e+00 0.000000000000000e+00 0.000000000000000e+00 1.000000000000000e+00
4.384539217076135e+01 1.959922091251163e+02 0.000000000000000e+00 1.959922091251163e+02 9.571546078292388e+02 0.000000000000000e+00 0.000000000000000e+00 0.000000000000000e+00 1.000000000000000e+00
4.384539217076136e+01 1.959922091251163e+02 0.000000000000000e+00 1.959922091251163e+02 9.571546078292386e+02 0.000000000000000e+00 0.000000000000000e+00 0.000000000000000e+00 1.000000000000000e+00
1.374475479277506e+01 1.000784208745055e+02 0.000000000000000e+00 1.000784208745055e+02 9.872552452072248e+02 0.000000000000000e+00 0.000000000000000e+00 0.000000000000000e+00 1.000000000000000e+00
1.374475479277505e+01 1.000784208745054e+02 0.000000000000000e+00 1.000784208745054e+02 9.872552452072247e+02 0.000000000000000e+00 0.000000000000000e+00 0.000000000000000e+00 1.000000000000000e+00
4.385489026817915e+01 1.960143505819173e+02 0.000000000000000e+00 1.960143505819173e+02 9.571451097318208e+02 0.000000000000000e+00 0.000000000000000e+00 0.000000000000000e+00 1.000000000000000e+00
4.385489026817918e+01 1.960143505819173e+02 0.000000000000000e+00 1.960143505819173e+02 9.571451097318209e+02 0.000000000000000e+00 0.000000000000000e+00 0.000000000000000e+00 1.000000000000000e+00
4.382712601301310e+01 1.959496526979864e+02 0.000000000000000e+00 1.959496526979864e+02 9.571728739869870e+02 0.000000000000000e+00 0.000000000000000e+00 0.000000000000000e+00 1.000000000000000e+00
4.382712601301314e+01 1.959496526979865e+02 0.000000000000000e+00 1.959496526979865e+02 9.571728739869869e+02 0.000000000000000e+00 0.000000000000000e+00 0.000000000000000e+00 1.000000000000000e+00
9.262302039857495e+01 2.838710942952730e+02 0.000000000000000e+00 2.838710942952730e+02 9.083769796014252e+02 0.000000000000000e+00 0.000000000000000e+00 0.000000000000000e+00 1.000000000000000e+00
9.262302039857488e+01 2.838710942952729e+02 0.000000000000000e+00 2.838710942952729e+02 9.083769796014253e+02 0.000000000000000e+00 0.000000000000000e+00 0.000000000000000e+00 1.000000000000000e+00