<?xml version="1.0" ?> 
<!-- 
# vtk DataFile Version 3.0
-->
<VTKFile type="UnstructuredGrid" version="0.1" compressor="vtkZLibDataCompressor" byte_order="LittleEndian">
  <UnstructuredGrid>
    <FieldData>
      <DataArray type="Float64" Name="TIME" NumberOfTuples="1" format="ascii">
1.000000000000000e+00 
      </DataArray>
    </FieldData>

    <Piece NumberOfPoints="6336" NumberOfCells="792" >
      <Points>
        <DataArray type="Float64" NumberOfComponents="3" format="ascii">
4.974344092443204e-01 5.058664349167642e-02 4.999999999999999e-02
4.974344092443204e-01 5.058664349167641e-02 6.666666666666667e-02
5.000000000000000e-01 0.000000000000000e+00 6.666666666666667e-02
5.000000000000000e-01 0.000000000000000e+00 5.000000000000000e-02
5.802408913036399e-01 5.900765721507022e-02 5.000000000000000e-02
5.802408913036400e-01 5.900765721507023e-02 6.666666666666668e-02
5.833333333333333e-01 0.000000000000000e+00 6.666666666666667e-02
5.833333333333333e-01 0.000000000000000e+00 5.000000000000000e-02
5.802408913036399e-01 5.900765721507022e-02 5.000000000000000e-02
5.802408913036400e-01 5.900765721507023e-02 6.666666666666668e-02
5.833333333333333e-01 0.000000000000000e+00 6.666666666666667e-02
5.833333333333333e-01 0.000000000000000e+00 5.000000000000000e-02
6.631324472041599e-01 6.743732253150880e-02 5.000000000000000e-02
6.631324472041599e-01 6.743732253150880e-02 6.666666666666667e-02
6.666666666666665e-01 0.000000000000000e+00 6.666666666666665e-02
6.666666666666665e-01 0.000000000000000e+00 5.000000000000000e-02
6.631324472041599e-01 6.743732253150880e-02 5.000000000000000e-02
6.631324472041599e-01 6.743732253150880e-02 6.666666666666667e-02
6.666666666666665e-01 0.000000000000000e+00 6.666666666666665e-02
6.666666666666665e-01 0.000000000000000e+00 5.000000000000000e-02
7.460240031046799e-01 7.586698784794742e-02 5.000000000000002e-02
7.460240031046799e-01 7.586698784794743e-02 6.666666666666669e-02
7.500000000000000e-01 0.000000000000000e+00 6.666666666666667e-02
7.500000000000000e-01 0.000000000000000e+00 5.000000000000000e-02
7.460240031046799e-01 7.586698784794742e-02 5.000000000000002e-02
7.460240031046799e-01 7.586698784794743e-02 6.666666666666669e-02
7.500000000000000e-01 0.000000000000000e+00 6.666666666666667e-02
7.500000000000000e-01 0.000000000000000e+00 5.000000000000000e-02
8.289155590052000e-01 8.429665316438600e-02 5.000000000000002e-02
8.289155590052000e-01 8.429665316438602e-02 6.666666666666669e-02
8.333333333333333e-01 0.000000000000000e+00 6.666666666666668e-02
8.333333333333333e-01 0.000000000000000e+00 5.000000000000000e-02
8.289155590052000e-01 8.429665316438600e-02 5.000000000000002e-02
8.289155590052000e-01 8.429665316438602e-02 6.666666666666669e-02
8.333333333333333e-01 0.000000000000000e+00 6.666666666666668e-02
8.333333333333333e-01 0.000000000000000e+00 5.000000000000000e-02
9.118071149057199e-01 9.272631848082459e-02 5.000000000000000e-02
9.118071149057199e-01 9.272631848082462e-02 6.666666666666668e-02
9.166666666666666e-01 0.000000000000000e+00 6.666666666666668e-02
9.166666666666666e-01 0.000000000000000e+00 5.000000000000000e-02
9.118071149057199e-01 9.272631848082459e-02 5.000000000000000e-02
9.118071149057199e-01 9.272631848082462e-02 6.666666666666668e-02
9.166666666666666e-01 0.000000000000000e+00 6.666666666666668e-02
9.166666666666666e-01 0.000000000000000e+00 5.000000000000000e-02
9.948688184886407e-01 1.011732869833529e-01 5.000000000000000e-02
9.948688184886407e-01 1.011732869833529e-01 6.666666666666669e-02
1.000000000000000e+00 0.000000000000000e+00 6.666666666666667e-02
1.000000000000000e+00 0.000000000000000e+00 5.000000000000000e-02
4.974344092443204e-01 5.058664349167641e-02 6.666666666666667e-02
4.974344092443204e-01 5.058664349167638e-02 8.333333333333334e-02
5.000000000000000e-01 0.000000000000000e+00 8.333333333333333e-02
5.000000000000000e-01 0.000000000000000e+00 6.666666666666667e-02
5.802408913036400e-01 5.900765721507023e-02 6.666666666666668e-02
5.802408913036401e-01 5.900765721507022e-02 8.333333333333336e-02
5.833333333333333e-01 0.000000000000000e+00 8.333333333333334e-02
5.833333333333333e-01 0.000000000000000e+00 6.666666666666667e-02
5.802408913036400e-01 5.900765721507023e-02 6.666666666666668e-02
5.802408913036401e-01 5.900765721507022e-02 8.333333333333336e-02
5.833333333333333e-01 0.000000000000000e+00 8.333333333333334e-02
5.833333333333333e-01 0.000000000000000e+00 6.666666666666667e-02
6.631324472041599e-01 6.743732253150880e-02 6.666666666666667e-02
6.631324472041600e-01 6.743732253150880e-02 8.333333333333334e-02
6.666666666666665e-01 0.000000000000000e+00 8.333333333333334e-02
6.666666666666665e-01 0.000000000000000e+00 6.666666666666665e-02
6.631324472041599e-01 6.743732253150880e-02 6.666666666666667e-02
6.631324472041600e-01 6.743732253150880e-02 8.333333333333334e-02
6.666666666666665e-01 0.000000000000000e+00 8.333333333333334e-02
6.666666666666665e-01 0.000000000000000e+00 6.666666666666665e-02
7.460240031046799e-01 7.586698784794743e-02 6.666666666666669e-02
7.460240031046799e-01 7.586698784794743e-02 8.333333333333337e-02
7.499999999999999e-01 0.000000000000000e+00 8.333333333333334e-02
7.500000000000000e-01 0.000000000000000e+00 6.666666666666667e-02
7.460240031046799e-01 7.586698784794743e-02 6.666666666666669e-02
7.460240031046799e-01 7.586698784794743e-02 8.333333333333337e-02
7.499999999999999e-01 0.000000000000000e+00 8.333333333333334e-02
7.500000000000000e-01 0.000000000000000e+00 6.666666666666667e-02
8.289155590052000e-01 8.429665316438602e-02 6.666666666666669e-02
8.289155590051999e-01 8.429665316438603e-02 8.333333333333337e-02
8.333333333333333e-01 0.000000000000000e+00 8.333333333333336e-02
8.333333333333333e-01 0.000000000000000e+00 6.666666666666668e-02
8.289155590052000e-01 8.429665316438602e-02 6.666666666666669e-02
8.289155590051999e-01 8.429665316438603e-02 8.333333333333337e-02
8.333333333333333e-01 0.000000000000000e+00 8.333333333333336e-02
8.333333333333333e-01 0.000000000000000e+00 6.666666666666668e-02
9.118071149057199e-01 9.272631848082462e-02 6.666666666666668e-02
9.118071149057199e-01 9.272631848082463e-02 8.333333333333338e-02
9.166666666666666e-01 0.000000000000000e+00 8.333333333333336e-02
9.166666666666666e-01 0.000000000000000e+00 6.666666666666668e-02
9.118071149057199e-01 9.272631848082462e-02 6.666666666666668e-02
9.118071149057199e-01 9.272631848082463e-02 8.333333333333338e-02
9.166666666666666e-01 0.000000000000000e+00 8.333333333333336e-02
9.166666666666666e-01 0.000000000000000e+00 6.666666666666668e-02
9.948688184886407e-01 1.011732869833529e-01 6.666666666666669e-02
9.948688184886408e-01 1.011732869833529e-01 8.333333333333337e-02
1.000000000000000e+00 0.000000000000000e+00 8.333333333333333e-02
1.000000000000000e+00 0.000000000000000e+00 6.666666666666667e-02
4.974344092443204e-01 5.058664349167638e-02 8.333333333333334e-02
4.974344092443204e-01 5.058664349167639e-02 1.000000000000000e-01
5.000000000000000e-01 0.000000000000000e+00 1.000000000000000e-01
5.000000000000000e-01 0.000000000000000e+00 8.333333333333333e-02
5.802408913036401e-01 5.900765721507022e-02 8.333333333333336e-02
5.802408913036401e-01 5.900765721507022e-02 1.000000000000000e-01
5.833333333333333e-01 0.000000000000000e+00 1.000000000000000e-01
5.833333333333333e-01 0.000000000000000e+00 8.333333333333334e-02
5.802408913036401e-01 5.900765721507022e-02 8.333333333333336e-02
5.802408913036401e-01 5.900765721507022e-02 1.000000000000000e-01
5.833333333333333e-01 0.000000000000000e+00 1.000000000000000e-01
5.833333333333333e-01 0.000000000000000e+00 8.333333333333334e-02
6.631324472041600e-01 6.743732253150880e-02 8.333333333333334e-02
6.631324472041600e-01 6.743732253150880e-02 1.000000000000000e-01
6.666666666666666e-01 0.000000000000000e+00 1.000000000000000e-01
6.666666666666665e-01 0.000000000000000e+00 8.333333333333334e-02
6.631324472041600e-01 6.743732253150880e-02 8.333333333333334e-02
6.631324472041600e-01 6.743732253150880e-02 1.000000000000000e-01
6.666666666666666e-01 0.000000000000000e+00 1.000000000000000e-01
6.666666666666665e-01 0.000000000000000e+00 8.333333333333334e-02
7.460240031046799e-01 7.586698784794743e-02 8.333333333333337e-02
7.460240031046798e-01 7.586698784794743e-02 1.000000000000000e-01
7.500000000000000e-01 0.000000000000000e+00 1.000000000000000e-01
7.499999999999999e-01 0.000000000000000e+00 8.333333333333334e-02
7.460240031046799e-01 7.586698784794743e-02 8.333333333333337e-02
7.460240031046798e-01 7.586698784794743e-02 1.000000000000000e-01
7.500000000000000e-01 0.000000000000000e+00 1.000000000000000e-01
7.499999999999999e-01 0.000000000000000e+00 8.333333333333334e-02
8.289155590051999e-01 8.429665316438603e-02 8.333333333333337e-02
8.289155590051999e-01 8.429665316438603e-02 1.000000000000000e-01
8.333333333333334e-01 0.000000000000000e+00 1.000000000000000e-01
8.333333333333333e-01 0.000000000000000e+00 8.333333333333336e-02
8.289155590051999e-01 8.429665316438603e-02 8.333333333333337e-02
8.289155590051999e-01 8.429665316438603e-02 1.000000000000000e-01
8.333333333333334e-01 0.000000000000000e+00 1.000000000000000e-01
8.333333333333333e-01 0.000000000000000e+00 8.333333333333336e-02
9.118071149057199e-01 9.272631848082463e-02 8.333333333333338e-02
9.118071149057199e-01 9.272631848082466e-02 1.000000000000000e-01
9.166666666666667e-01 0.000000000000000e+00 1.000000000000000e-01
9.166666666666666e-01 0.000000000000000e+00 8.333333333333336e-02
9.118071149057199e-01 9.272631848082463e-02 8.333333333333338e-02
9.118071149057199e-01 9.272631848082466e-02 1.000000000000000e-01
9.166666666666667e-01 0.000000000000000e+00 1.000000000000000e-01
9.166666666666666e-01 0.000000000000000e+00 8.333333333333336e-02
9.948688184886408e-01 1.011732869833529e-01 8.333333333333337e-02
9.948688184886408e-01 1.011732869833529e-01 1.000000000000000e-01
1.000000000000000e+00 0.000000000000000e+00 1.000000000000000e-01
1.000000000000000e+00 0.000000000000000e+00 8.333333333333333e-02
[...]
  <PointData>
        <DataArray type="Float64" Name="conductivity" NumberOfComponents="9" format="ascii">
1.372952645305672e+01 -1.000043166787709e+02 0.000000000000000e+00 -1.000043166787709e+02 9.872704735469433e+02 0.000000000000000e+00 0.000000000000000e+00 0.000000000000000e+00 1.000000000000000e+00
1.372952645305672e+01 -1.000043166787709e+02 0.000000000000000e+00 -1.000043166787709e+02 9.872704735469433e+02 0.000000000000000e+00 0.000000000000000e+00 0.000000000000000e+00 1.000000000000000e+00
3.562789129165986e+00 7.126804648119444e-15 0.000000000000000e+00 7.126804648119444e-15 9.974372108708342e+02 0.000000000000000e+00 0.000000000000000e+00 0.000000000000000e+00 1.000000000000000e+00
3.562789129165987e+00 0.000000000000000e+00 0.000000000000000e+00 0.000000000000000e+00 9.974372108708342e+02 0.000000000000000e+00 0.000000000000000e+00 0.000000000000000e+00 1.000000000000000e+00
1.373182241206073e+01 -1.000154707032168e+02 0.000000000000000e+00 -1.000154707032168e+02 9.872681775879394e+02 0.000000000000000e+00 0.000000000000000e+00 0.000000000000000e+00 1.000000000000000e+00
1.373182241206072e+01 -1.000154707032167e+02 0.000000000000000e+00 -1.000154707032167e+02 9.872681775879391e+02 0.000000000000000e+00 0.000000000000000e+00 0.000000000000000e+00 1.000000000000000e+00
3.562680716910880e+00 2.646426987987837e-14 0.000000000000000e+00 2.646426987987837e-14 9.974373192830893e+02 0.000000000000000e+00 0.000000000000000e+00 0.000000000000000e+00 1.000000000000000e+00
3.562680716910880e+00 2.117141590390271e-14 0.000000000000000e+00 2.117141590390271e-14 9.974373192830892e+02 0.000000000000000e+00 0.000000000000000e+00 0.000000000000000e+00 1.000000000000000e+00
1.373182241206073e+01 -1.000154707032168e+02 0.000000000000000e+00 -1.000154707032168e+02 9.872681775879394e+02 0.000000000000000e+00 0.000000000000000e+00 0.000000000000000e+00 1.000000000000000e+00
1.373182241206072e+01 -1.000154707032167e+02 0.000000000000000e+00 -1.000154707032167e+02 9.872681775879391e+02 0.000000000000000e+00 0.000000000000000e+00 0.000000000000000e+00 1.000000000000000e+00
3.562680716910880e+00 2.646426987987837e-14 0.000000000000000e+00 2.646426987987837e-14 9.974373192830893e+02 0.000000000000000e+00 0.000000000000000e+00 0.000000000000000e+00 1.000000000000000e+00
3.562680716910880e+00 2.117141590390271e-14 0.000000000000000e+00 2.117141590390271e-14 9.974373192830892e+02 0.000000000000000e+00 0.000000000000000e+00 0.000000000000000e+00 1.000000000000000e+00
1.373381038925486e+01 -1.000251285177433e+02 0.000000000000000e+00 -1.000251285177433e+02 9.872661896107451e+02 0.000000000000000e+00 0.000000000000000e+00 0.000000000000000e+00 1.000000000000000e+00
1.373381038925486e+01 -1.000251285177433e+02 0.000000000000000e+00 -1.000251285177433e+02 9.872661896107452e+02 0.000000000000000e+00 0.000000000000000e+00 0.000000000000000e+00 1.000000000000000e+00
3.562586804129690e+00 2.315114345842631e-14 0.000000000000000e+00 2.315114345842631e-14 9.974374131958702e+02 0.000000000000000e+00 0.000000000000000e+00 0.000000000000000e+00 1.000000000000000e+00
3.562586804129690e+00 -1.157557172921316e-15 0.000000000000000e+00 -1.157557172921316e-15 9.974374131958702e+02 0.000000000000000e+00 0.000000000000000e+00 0.000000000000000e+00 1.000000000000000e+00
1.373381038925486e+01 -1.000251285177433e+02 0.000000000000000e+00 -1.000251285177433e+02 9.872661896107451e+02 0.000000000000000e+00 0.000000000000000e+00 0.000000000000000e+00 1.000000000000000e+00
1.373381038925486e+01 -1.000251285177433e+02 0.000000000000000e+00 -1.000251285177433e+02 9.872661896107452e+02 0.000000000000000e+00 0.000000000000000e+00 0.000000000000000e+00 1.000000000000000e+00
3.562586804129690e+00 2.315114345842631e-14 0.000000000000000e+00 2.315114345842631e-14 9.974374131958702e+02 0.000000000000000e+00 0.000000000000000e+00 0.000000000000000e+00 1.000000000000000e+00
3.562586804129690e+00 -1.157557172921316e-15 0.000000000000000e+00 -1.157557172921316e-15 9.974374131958702e+02 0.000000000000000e+00 0.000000000000000e+00 0.000000000000000e+00 1.000000000000000e+00
1.373381038925486e+01 -1.000251285177433e+02 0.000000000000000e+00 -1.000251285177433e+02 9.872661896107451e+02 0.000000000000000e+00 0.000000000000000e+00 0.000000000000000e+00 1.000000000000000e+00
1.373381038925486e+01 -1.000251285177433e+02 0.000000000000000e+00 -1.000251285177433e+02 9.872661896107451e+02 0.000000000000000e+00 0.000000000000000e+00 0.000000000000000e+00 1.000000000000000e+00
3.562586804129690e+00 -3.086819127790173e-15 0.000000000000000e+00 -3.086819127790173e-15 9.974374131958704e+02 0.000000000000000e+00 0.000000000000000e+00 0.000000000000000e+00 1.000000000000000e+00
3.562586804129691e+00 -3.395501040569193e-14 0.000000000000000e+00 -3.395501040569193e-14 9.974374131958704e+02 0.000000000000000e+00 0.000000000000000e+00 0.000000000000000e+00 1.000000000000000e+00
1.373381038925486e+01 -1.000251285177433e+02 0.000000000000000e+00 -1.000251285177433e+02 9.872661896107451e+02 0.000000000000000e+00 0.000000000000000e+00 0.000000000000000e+00 1.000000000000000e+00
1.373381038925486e+01 -1.000251285177433e+02 0.000000000000000e+00 -1.000251285177433e+02 9.872661896107451e+02 0.000000000000000e+00 0.000000000000000e+00 0.000000000000000e+00 1.000000000000000e+00
3.562586804129690e+00 -3.086819127790173e-15 0.000000000000000e+00 -3.086819127790173e-15 9.974374131958704e+02 0.000000000000000e+00 0.000000000000000e+00 0.000000000000000e+00 1.000000000000000e+00
3.562586804129691e+00 -3.395501040569193e-14 0.000000000000000e+00 -3.395501040569193e-14 9.974374131958704e+02 0.000000000000000e+00 0.000000000000000e+00 0.000000000000000e+00 1.000000000000000e+00
1.373381038925486e+01 -1.000251285177433e+02 0.000000000000000e+00 -1.000251285177433e+02 9.872661896107452e+02 0.000000000000000e+00 0.000000000000000e+00 0.000000000000000e+00 1.000000000000000e+00
1.373381038925486e+01 -1.000251285177433e+02 0.000000000000000e+00 -1.000251285177433e+02 9.872661896107451e+02 0.000000000000000e+00 0.000000000000000e+00 0.000000000000000e+00 1.000000000000000e+00
3.562586804129689e+00 -2.222509772008924e-14 0.000000000000000e+00 -2.222509772008924e-14 9.974374131958702e+02 0.000000000000000e+00 0.000000000000000e+00 0.000000000000000e+00 1.000000000000000e+00
3.562586804129690e+00 -6.482320168359369e-15 0.000000000000000e+00 -6.482320168359369e-15 9.974374131958705e+02 0.000000000000000e+00 0.000000000000000e+00 0.000000000000000e+00 1.000000000000000e+00
1.373381038925486e+01 -1.000251285177433e+02 0.000000000000000e+00 -1.000251285177433e+02 9.872661896107452e+02 0.000000000000000e+00 0.000000000000000e+00 0.000000000000000e+00 1.000000000000000e+00
1.373381038925486e+01 -1.000251285177433e+02 0.000000000000000e+00 -1.000251285177433e+02 9.872661896107451e+02 0.000000000000000e+00 0.000000000000000e+00 0.000000000000000e+00 1.000000000000000e+00
3.562586804129689e+00 -2.222509772008924e-14 0.000000000000000e+00 -2.222509772008924e-14 9.974374131958702e+02 0.000000000000000e+00 0.000000000000000e+00 0.000000000000000e+00 1.000000000000000e+00
3.562586804129690e+00 -6.482320168359369e-15 0.000000000000000e+00 -6.482320168359369e-15 9.974374131958705e+02 0.000000000000000e+00 0.000000000000000e+00 0.000000000000000e+00 1.000000000000000e+00
1.373953707274280e+01 -1.000530138619688e+02 0.000000000000000e+00 -1.000530138619688e+02 9.872604629272570e+02 0.000000000000000e+00 0.000000000000000e+00 0.000000000000000e+00 1.000000000000000e+00
1.373953707274281e+01 -1.000530138619688e+02 0.000000000000000e+00 -1.000530138619688e+02 9.872604629272572e+02 0.000000000000000e+00 0.000000000000000e+00 0.000000000000000e+00 1.000000000000000e+00
3.562706420599229e+00 -3.954527079505096e-14 0.000000000000000e+00 -3.533832709344980e-14 9.974372935794007e+02 0.000000000000000e+00 0.000000000000000e+00 0.000000000000000e+00 1.000000000000000e+00
3.562706420599230e+00 -3.365554961280935e-15 0.000000000000000e+00 -2.524166220960701e-15 9.974372935794009e+02 0.000000000000000e+00 0.000000000000000e+00 0.000000000000000e+00 1.000000000000000e+00
1.373953707274280e+01 -1.000530138619688e+02 0.000000000000000e+00 -1.000530138619688e+02 9.872604629272570e+02 0.000000000000000e+00 0.000000000000000e+00 0.000000000000000e+00 1.000000000000000e+00
1.373953707274281e+01 -1.000530138619688e+02 0.000000000000000e+00 -1.000530138619688e+02 9.872604629272572e+02 0.000000000000000e+00 0.000000000000000e+00 0.000000000000000e+00 1.000000000000000e+00
3.562706420599229e+00 -3.954527079505096e-14 0.000000000000000e+00 -3.533832709344980e-14 9.974372935794007e+02 0.000000000000000e+00 0.000000000000000e+00 0.000000000000000e+00 1.000000000000000e+00
3.562706420599230e+00 -3.365554961280935e-15 0.000000000000000e+00 -2.524166220960701e-15 9.974372935794009e+02 0.000000000000000e+00 0.000000000000000e+00 0.000000000000000e+00 1.000000000000000e+00
1.374475479277506e+01 -1.000784208745055e+02 0.000000000000000e+00 -1.000784208745055e+02 9.872552452072248e+02 0.000000000000000e+00 0.000000000000000e+00 0.000000000000000e+00 1.000000000000000e+00
1.374475479277507e+01 -1.000784208745055e+02 0.000000000000000e+00 -1.000784208745055e+02 9.872552452072248e+02 0.000000000000000e+00 0.000000000000000e+00 0.000000000000000e+00 1.000000000000000e+00
3.562815518797931e+00 -4.504615899153325e-14 0.000000000000000e+00 -4.182857620642373e-14 9.974371844812021e+02 0.000000000000000e+00 0.000000000000000e+00 0.000000000000000e+00 1.000000000000000e+00
3.562815518797931e+00 -2.252307949576664e-14 0.000000000000000e+00 -2.252307949576664e-14 9.974371844812021e+02 0.000000000000000e+00 0.000000000000000e+00 0.000000000000000e+00 1.000000000000000e+00
1.372952645305672e+01 -1.000043166787709e+02 0.000000000000000e+00 -1.000043166787709e+02 9.872704735469433e+02 0.000000000000000e+00 0.000000000000000e+00 0.000000000000000e+00 1.000000000000000e+00
1.372952645305671e+01 -1.000043166787709e+02 0.000000000000000e+00 -1.000043166787709e+02 9.872704735469433e+02 0.000000000000000e+00 0.000000000000000e+00 0.000000000000000e+00 1.000000000000000e+00
3.562789129165987e+00 -4.276082788871668e-15 0.000000000000000e+00 -5.701443718495558e-15 9.974372108708342e+02 0.000000000000000e+00 0.000000000000000e+00 0.000000000000000e+00 1.000000000000000e+00
3.562789129165986e+00 7.126804648119444e-15 0.000000000000000e+00 7.126804648119444e-15 9.974372108708342e+02 0.000000000000000e+00 0.000000000000000e+00 0.000000000000000e+00 1.000000000000000e+00
1.373182241206072e+01 -1.000154707032167e+02 0.000000000000000e+00 -1.000154707032167e+02 9.872681775879391e+02 0.000000000000000e+00 0.000000000000000e+00 0.000000000000000e+00 1.000000000000000e+00
1.373182241206072e+01 -1.000154707032168e+02 0.000000000000000e+00 -1.000154707032168e+02 9.872681775879395e+02 0.000000000000000e+00 0.000000000000000e+00 0.000000000000000e+00 1.000000000000000e+00
3.562680716910881e+00 1.984820240990879e-14 0.000000000000000e+00 1.720177542192095e-14 9.974373192830896e+02 0.000000000000000e+00 0.000000000000000e+00 0.000000000000000e+00 1.000000000000000e+00
3.562680716910880e+00 2.646426987987837e-14 0.000000000000000e+00 2.646426987987837e-14 9.974373192830893e+02 0.000000000000000e+00 0.000000000000000e+00 0.000000000000000e+00 1.000000000000000e+00
1.373182241206072e+01 -1.000154707032167e+02 0.000000000000000e+00 -1.000154707032167e+02 9.872681775879391e+02 0.000000000000000e+00 0.000000000000000e+00 0.000000000000000e+00 1.000000000000000e+00
1.373182241206072e+01 -1.000154707032168e+02 0.000000000000000e+00 -1.000154707032168e+02 9.872681775879395e+02 0.000000000000000e+00 0.000000000000000e+00 0.000000000000000e+00 1.000000000000000e+00
3.562680716910881e+00 1.984820240990879e-14 0.000000000000000e+00 1.720177542192095e-14 9.974373192830896e+02 0.000000000000000e+00 0.000000000000000e+00 0.000000000000000e+00 1.000000000000000e+00
3.562680716910880e+00 2.646426987987837e-14 0.000000000000000e+00 2.646426987987837e-14 9.974373192830893e+02 0.000000000000000e+00 0.000000000000000e+00 0.000000000000000e+00 1.000000000000000e+00
1.373381038925486e+01 -1.000251285177433e+02 0.000000000000000e+00 -1.000251285177433e+02 9.872661896107452e+02 0.000000000000000e+00 0.000000000000000e+00 0.000000000000000e+00 1.000000000000000e+00
1.373381038925486e+01 -1.000251285177433e+02 0.000000000000000e+00 -1.000251285177433e+02 9.872661896107451e+02 0.000000000000000e+00 0.000000000000000e+00 0.000000000000000e+00 1.000000000000000e+00
3.562586804129691e+00 2.546625780426896e-14 0.000000000000000e+00 2.546625780426896e-14 9.974374131958705e+02 0.000000000000000e+00 0.000000000000000e+00 0.000000000000000e+00 1.000000000000000e+00
3.562586804129690e+00 2.315114345842631e-14 0.000000000000000e+00 2.315114345842631e-14 9.974374131958702e+02 0.000000000000000e+00 0.000000000000000e+00 0.000000000000000e+00 1.000000000000000e+00
1.373381038925486e+01 -1.000251285177433e+02 0.000000000000000e+00 -1.000251285177433e+02 9.872661896107452e+02 0.000000000000000e+00 0.000000000000000e+00 0.000000000000000e+00 1.000000000000000e+00
1.373381038925486e+01 -1.000251285177433e+02 0.000000000000000e+00 -1.000251285177433e+02 9.872661896107451e+02 0.000000000000000e+00 0.000000000000000e+00 0.000000000000000e+00 1.000000000000000e+00
3.562586804129691e+00 2.546625780426896e-14 0.000000000000000e+00 2.546625780426896e-14 9.974374131958705e+02 0.000000000000000e+00 0.000000000000000e+00 0.000000000000000e+00 1.000000000000000e+00
3.562586804129690e+00 2.315114345842631e-14 0.000000000000000e+00 2.315114345842631e-14 9.974374131958702e+02 0.000000000000000e+00 0.000000000000000e+00 0.000000000000000e+00 1.000000000000000e+00
1.373381038925486e+01 -1.000251285177433e+02 0.000000000000000e+00 -1.000251285177433e+02 9.872661896107451e+02 0.000000000000000e+00 0.000000000000000e+00 0.000000000000000e+00 1.000000000000000e+00
1.373381038925486e+01 -1.000251285177433e+02 0.000000000000000e+00 -1.000251285177433e+02 9.872661896107451e+02 0.000000000000000e+00 0.000000000000000e+00 0.000000000000000e+00 1.000000000000000e+00
3.562586804129690e+00 -1.028939709263392e-14 0.000000000000000e+00 -1.028939709263392e-14 9.974374131958702e+02 0.000000000000000e+00 0.000000000000000e+00 0.000000000000000e+00 1.000000000000000e+00
3.562586804129690e+00 -3.086819127790173e-15 0.000000000000000e+00 -3.086819127790173e-15 9.974374131958704e+02 0.000000000000000e+00 0.000000000000000e+00 0.000000000000000e+00 1.000000000000000e+00
1.373381038925486e+01 -1.000251285177433e+02 0.000000000000000e+00 -1.000251285177433e+02 9.872661896107451e+02 0.000000000000000e+00 0.000000000000000e+00 0.000000000000000e+00 1.000000000000000e+00
1.373381038925486e+01 -1.000251285177433e+02 0.000000000000000e+00 -1.000251285177433e+02 9.872661896107451e+02 0.000000000000000e+00 0.000000000000000e+00 0.000000000000000e+00 1.000000000000000e+00
3.562586804129690e+00 -1.028939709263392e-14 0.000000000000000e+00 -1.028939709263392e-14 9.974374131958702e+02 0.000000000000000e+00 0.000000000000000e+00 0.000000000000000e+00 1.000000000000000e+00
3.562586804129690e+00 -3.086819127790173e-15 0.000000000000000e+00 -3.086819127790173e-15 9.974374131958704e+02 0.000000000000000e+00 0.000000000000000e+00 0.000000000000000e+00 1.000000000000000e+00
1.373381038925486e+01 -1.000251285177433e+02 0.000000000000000e+00 -1.000251285177433e+02 9.872661896107451e+02 0.000000000000000e+00 0.000000000000000e+00 0.000000000000000e+00 1.000000000000000e+00
1.373381038925487e+01 -1.000251285177433e+02 0.000000000000000e+00 -1.000251285177433e+02 9.872661896107452e+02 0.000000000000000e+00 0.000000000000000e+00 0.000000000000000e+00 1.000000000000000e+00
3.562586804129689e+00 -4.722833265518969e-14 0.000000000000000e+00 -4.722833265518969e-14 9.974374131958704e+02 0.000000000000000e+00 0.000000000000000e+00 0.000000000000000e+00 1.000000000000000e+00
3.562586804129689e+00 -2.222509772008924e-14 0.000000000000000e+00 -2.222509772008924e-14 9.974374131958702e+02 0.000000000000000e+00 0.000000000000000e+00 0.000000000000000e+00 1.000000000000000e+00
1.373381038925486e+01 -1.000251285177433e+02 0.000000000000000e+00 -1.000251285177433e+02 9.872661896107451e+02 0.000000000000000e+00 0.000000000000000e+00 0.000000000000000e+00 1.000000000000000e+00
1.373381038925487e+01 -1.000251285177433e+02 0.000000000000000e+00 -1.000251285177433e+02 9.872661896107452e+02 0.000000000000000e+00 0.000000000000000e+00 0.000000000000000e+00 1.000000000000000e+00
3.562586804129689e+00 -4.722833265518969e-14 0.000000000000000e+00 -4.722833265518969e-14 9.974374131958704e+02 0.000000000000000e+00 0.000000000000000e+00 0.000000000000000e+00 1.000000000000000e+00
3.562586804129689e+00 -2.222509772008924e-14 0.000000000000000e+00 -2.222509772008924e-14 9.974374131958702e+02 0.000000000000000e+00 0.000000000000000e+00 0.000000000000000e+00 1.000000000000000e+00
1.373953707274281e+01 -1.000530138619688e+02 0.000000000000000e+00 -1.000530138619688e+02 9.872604629272572e+02 0.000000000000000e+00 0.000000000000000e+00 0.000000000000000e+00 1.000000000000000e+00
1.373953707274281e+01 -1.000530138619688e+02 0.000000000000000e+00 -1.000530138619688e+02 9.872604629272572e+02 0.000000000000000e+00 0.000000000000000e+00 0.000000000000000e+00 1.000000000000000e+00
3.562706420599229e+00 -6.646971048529850e-14 0.000000000000000e+00 -6.899387670625920e-14 9.974372935794007e+02 0.000000000000000e+00 0.000000000000000e+00 0.000000000000000e+00 1.000000000000000e+00
3.562706420599229e+00 -3.954527079505096e-14 0.000000000000000e+00 -3.533832709344980e-14 9.974372935794007e+02 0.000000000000000e+00 0.000000000000000e+00 0.000000000000000e+00 1.000000000000000e+00
1.373953707274281e+01 -1.000530138619688e+02 0.000000000000000e+00 -1.000530138619688e+02 9.872604629272572e+02 0.000000000000000e+00 0.000000000000000e+00 0.000000000000000e+00 1.000000000000000e+00
1.373953707274281e+01 -1.000530138619688e+02 0.000000000000000e+00 -1.000530138619688e+02 9.872604629272572e+02 0.000000000000000e+00 0.000000000000000e+00 0.000000000000000e+00 1.000000000000000e+00
3.562706420599229e+00 -6.646971048529850e-14 0.000000000000000e+00 -6.899387670625920e-14 9.974372935794007e+02 0.000000000000000e+00 0.000000000000000e+00 0.000000000000000e+00 1.000000000000000e+00
3.562706420599229e+00 -3.954527079505096e-14 0.000000000000000e+00 -3.533832709344980e-14 9.974372935794007e+02 0.000000000000000e+00 0.000000000000000e+00 0.000000000000000e+00 1.000000000000000e+00
1.374475479277507e+01 -1.000784208745055e+02 0.000000000000000e+00 -1.000784208745055e+02 9.872552452072248e+02 0.000000000000000e+00 0.000000000000000e+00 0.000000000000000e+00 1.000000000000000e+00
1.374475479277507e+01 -1.000784208745056e+02 0.000000000000000e+00 -1.000784208745055e+02 9.872552452072249e+02 0.000000000000000e+00 0.000000000000000e+00 0.000000000000000e+00 1.000000000000000e+00
3.562815518797930e+00 -5.952528152452612e-14 0.000000000000000e+00 -5.952528152452612e-14 9.974371844812021e+02 0.000000000000000e+00 0.000000000000000e+00 0.000000000000000e+00 1.000000000000000e+00
3.562815518797931e+00 -4.504615899153325e-14 0.000000000000000e+00 -4.182857620642373e-14 9.974371844812021e+02 0.000000000000000e+00 0.000000000000000e+00 0.000000000000000e+00 1.000000000000000e+00
1.372952645305671e+01 -1.000043166787709e+02 0.000000000000000e+00 -1.000043166787709e+02 9.872704735469433e+02 0.000000000000000e+00 0.000000000000000e+00 0.000000000000000e+00 1.000000000000000e+00
1.372952645305670e+01 -1.000043166787709e+02 0.000000000000000e+00 -1.000043166787709e+02 9.872704735469433e+02 0.000000000000000e+00 0.000000000000000e+00 0.000000000000000e+00 1.000000000000000e+00
3.562789129165986e+00 -1.995505301473446e-14 0.000000000000000e+00 -2.280577487398224e-14 9.974372108708341e+02 0.000000000000000e+00 0.000000000000000e+00 0.000000000000000e+00 1.000000000000000e+00