<?xml version="1.0" ?> 
<!-- 
# vtk DataFile Version 3.0
-->
<VTKFile type="UnstructuredGrid" version="0.1" compressor="vtkZLibDataCompressor" byte_order="LittleEndian">
  <UnstructuredGrid>
    <FieldData>
      <DataArray type="Float64" Name="TIME" NumberOfTuples="1" format="ascii">
1.000000000000000e+00 
      </DataArray>
    </FieldData>

    <Piece NumberOfPoints="5472" NumberOfCells="684" >
      <Points>
        <DataArray type="Float64" NumberOfComponents="3" format="ascii">
-1.253225969512080e-01 4.840395094343075e-01 4.999999999999999e-02
-1.253225969512080e-01 4.840395094343076e-01 6.666666666666667e-02
-7.571137528953702e-02 4.942345472058453e-01 6.666666666666667e-02
-7.571137528953706e-02 4.942345472058453e-01 4.999999999999999e-02
-1.460145347356837e-01 5.639589785332624e-01 4.999999999999999e-02
-1.460145347356837e-01 5.639589785332624e-01 6.666666666666669e-02
-8.821001856501655e-02 5.758241534746635e-01 6.666666666666669e-02
-8.821001856501656e-02 5.758241534746635e-01 4.999999999999999e-02
-1.460145347356837e-01 5.639589785332624e-01 4.999999999999999e-02
-1.460145347356837e-01 5.639589785332624e-01 6.666666666666669e-02
-8.821001856501655e-02 5.758241534746635e-01 6.666666666666669e-02
-8.821001856501656e-02 5.758241534746635e-01 4.999999999999999e-02
-1.668737539836385e-01 6.445245468951568e-01 5.000000000000000e-02
-1.668737539836385e-01 6.445245468951569e-01 6.666666666666668e-02
-1.008114497885904e-01 6.580847468281870e-01 6.666666666666668e-02
-1.008114497885903e-01 6.580847468281870e-01 5.000000000000000e-02
-1.668737539836385e-01 6.445245468951568e-01 5.000000000000000e-02
-1.668737539836385e-01 6.445245468951569e-01 6.666666666666668e-02
-1.008114497885904e-01 6.580847468281870e-01 6.666666666666668e-02
-1.008114497885903e-01 6.580847468281870e-01 5.000000000000000e-02
-1.877329732315934e-01 7.250901152570516e-01 5.000000000000000e-02
-1.877329732315934e-01 7.250901152570515e-01 6.666666666666669e-02
-1.134128810121642e-01 7.403453401817103e-01 6.666666666666668e-02
-1.134128810121642e-01 7.403453401817103e-01 5.000000000000000e-02
-1.877329732315934e-01 7.250901152570516e-01 5.000000000000000e-02
-1.877329732315934e-01 7.250901152570515e-01 6.666666666666669e-02
-1.134128810121642e-01 7.403453401817103e-01 6.666666666666668e-02
-1.134128810121642e-01 7.403453401817103e-01 5.000000000000000e-02
-2.085921924795482e-01 8.056556836189462e-01 4.999999999999999e-02
-2.085921924795482e-01 8.056556836189461e-01 6.666666666666668e-02
-1.260143122357380e-01 8.226059335352337e-01 6.666666666666668e-02
-1.260143122357379e-01 8.226059335352338e-01 4.999999999999999e-02
-2.085921924795482e-01 8.056556836189462e-01 4.999999999999999e-02
-2.085921924795482e-01 8.056556836189461e-01 6.666666666666668e-02
-1.260143122357380e-01 8.226059335352337e-01 6.666666666666668e-02
-1.260143122357379e-01 8.226059335352338e-01 4.999999999999999e-02
-2.294514117275031e-01 8.862212519808408e-01 4.999999999999999e-02
-2.294514117275031e-01 8.862212519808408e-01 6.666666666666669e-02
-1.386157434593118e-01 9.048665268887571e-01 6.666666666666669e-02
-1.386157434593118e-01 9.048665268887571e-01 4.999999999999999e-02
-2.294514117275031e-01 8.862212519808408e-01 4.999999999999999e-02
-2.294514117275031e-01 8.862212519808408e-01 6.666666666666669e-02
-1.386157434593118e-01 9.048665268887571e-01 6.666666666666669e-02
-1.386157434593118e-01 9.048665268887571e-01 4.999999999999999e-02
-2.506451939024160e-01 9.680790188686150e-01 5.000000000000000e-02
-2.506451939024161e-01 9.680790188686150e-01 6.666666666666668e-02
-1.514227505790739e-01 9.884690944116905e-01 6.666666666666669e-02
-1.514227505790738e-01 9.884690944116905e-01 5.000000000000000e-02
-7.571137528953706e-02 4.942345472058453e-01 4.999999999999999e-02
-7.571137528953702e-02 4.942345472058453e-01 6.666666666666667e-02
-2.532366460489958e-02 4.993583002323868e-01 6.666666666666667e-02
-2.532366460489961e-02 4.993583002323868e-01 4.999999999999999e-02
-8.821001856501656e-02 5.758241534746635e-01 4.999999999999999e-02
-8.821001856501655e-02 5.758241534746635e-01 6.666666666666669e-02
-2.950382860753510e-02 5.817871123184866e-01 6.666666666666669e-02
-2.950382860753511e-02 5.817871123184866e-01 5.000000000000000e-02
-8.821001856501656e-02 5.758241534746635e-01 4.999999999999999e-02
-8.821001856501655e-02 5.758241534746635e-01 6.666666666666669e-02
-2.950382860753510e-02 5.817871123184866e-01 6.666666666666669e-02
-2.950382860753511e-02 5.817871123184866e-01 5.000000000000000e-02
-1.008114497885903e-01 6.580847468281870e-01 5.000000000000000e-02
-1.008114497885904e-01 6.580847468281870e-01 6.666666666666668e-02
-3.371866126575442e-02 6.648995569354132e-01 6.666666666666668e-02
-3.371866126575442e-02 6.648995569354132e-01 5.000000000000000e-02
-1.008114497885903e-01 6.580847468281870e-01 5.000000000000000e-02
-1.008114497885904e-01 6.580847468281870e-01 6.666666666666668e-02
-3.371866126575442e-02 6.648995569354132e-01 6.666666666666668e-02
-3.371866126575442e-02 6.648995569354132e-01 5.000000000000000e-02
-1.134128810121642e-01 7.403453401817103e-01 5.000000000000000e-02
-1.134128810121642e-01 7.403453401817103e-01 6.666666666666668e-02
-3.793349392397373e-02 7.480120015523399e-01 6.666666666666668e-02
-3.793349392397372e-02 7.480120015523399e-01 5.000000000000000e-02
-1.134128810121642e-01 7.403453401817103e-01 5.000000000000000e-02
-1.134128810121642e-01 7.403453401817103e-01 6.666666666666668e-02
-3.793349392397373e-02 7.480120015523399e-01 6.666666666666668e-02
-3.793349392397372e-02 7.480120015523399e-01 5.000000000000000e-02
-1.260143122357379e-01 8.226059335352338e-01 4.999999999999999e-02
-1.260143122357380e-01 8.226059335352337e-01 6.666666666666668e-02
-4.214832658219303e-02 8.311244461692667e-01 6.666666666666665e-02
-4.214832658219300e-02 8.311244461692667e-01 4.999999999999999e-02
-1.260143122357379e-01 8.226059335352338e-01 4.999999999999999e-02
-1.260143122357380e-01 8.226059335352337e-01 6.666666666666668e-02
-4.214832658219303e-02 8.311244461692667e-01 6.666666666666665e-02
-4.214832658219300e-02 8.311244461692667e-01 4.999999999999999e-02
-1.386157434593118e-01 9.048665268887571e-01 4.999999999999999e-02
-1.386157434593118e-01 9.048665268887571e-01 6.666666666666669e-02
-4.636315924041234e-02 9.142368907861933e-01 6.666666666666668e-02
-4.636315924041230e-02 9.142368907861933e-01 4.999999999999999e-02
-1.386157434593118e-01 9.048665268887571e-01 4.999999999999999e-02
-1.386157434593118e-01 9.048665268887571e-01 6.666666666666669e-02
-4.636315924041234e-02 9.142368907861933e-01 6.666666666666668e-02
-4.636315924041230e-02 9.142368907861933e-01 4.999999999999999e-02
-1.514227505790738e-01 9.884690944116905e-01 5.000000000000000e-02
-1.514227505790739e-01 9.884690944116905e-01 6.666666666666669e-02
-5.064732920979921e-02 9.987166004647734e-01 6.666666666666669e-02
-5.064732920979916e-02 9.987166004647735e-01 4.999999999999999e-02
-2.532366460489961e-02 4.993583002323868e-01 4.999999999999999e-02
-2.532366460489958e-02 4.993583002323868e-01 6.666666666666667e-02
2.532366460489953e-02 4.993583002323868e-01 6.666666666666667e-02
2.532366460489950e-02 4.993583002323868e-01 4.999999999999999e-02
-2.950382860753511e-02 5.817871123184866e-01 5.000000000000000e-02
-2.950382860753510e-02 5.817871123184866e-01 6.666666666666669e-02
2.950382860753503e-02 5.817871123184866e-01 6.666666666666669e-02
2.950382860753502e-02 5.817871123184866e-01 4.999999999999999e-02
-2.950382860753511e-02 5.817871123184866e-01 5.000000000000000e-02
-2.950382860753510e-02 5.817871123184866e-01 6.666666666666669e-02
2.950382860753503e-02 5.817871123184866e-01 6.666666666666669e-02
2.950382860753502e-02 5.817871123184866e-01 4.999999999999999e-02
-3.371866126575442e-02 6.648995569354132e-01 5.000000000000000e-02
-3.371866126575442e-02 6.648995569354132e-01 6.666666666666668e-02
3.371866126575430e-02 6.648995569354135e-01 6.666666666666668e-02
3.371866126575430e-02 6.648995569354134e-01 5.000000000000000e-02
-3.371866126575442e-02 6.648995569354132e-01 5.000000000000000e-02
-3.371866126575442e-02 6.648995569354132e-01 6.666666666666668e-02
3.371866126575430e-02 6.648995569354135e-01 6.666666666666668e-02
3.371866126575430e-02 6.648995569354134e-01 5.000000000000000e-02
-3.793349392397372e-02 7.480120015523399e-01 5.000000000000000e-02
-3.793349392397373e-02 7.480120015523399e-01 6.666666666666668e-02
3.793349392397360e-02 7.480120015523400e-01 6.666666666666669e-02
3.793349392397360e-02 7.480120015523400e-01 4.999999999999999e-02
-3.793349392397372e-02 7.480120015523399e-01 5.000000000000000e-02
-3.793349392397373e-02 7.480120015523399e-01 6.666666666666668e-02
3.793349392397360e-02 7.480120015523400e-01 6.666666666666669e-02
3.793349392397360e-02 7.480120015523400e-01 4.999999999999999e-02
-4.214832658219300e-02 8.311244461692667e-01 4.999999999999999e-02
-4.214832658219303e-02 8.311244461692667e-01 6.666666666666665e-02
4.214832658219288e-02 8.311244461692667e-01 6.666666666666668e-02
4.214832658219290e-02 8.311244461692666e-01 4.999999999999999e-02
-4.214832658219300e-02 8.311244461692667e-01 4.999999999999999e-02
-4.214832658219303e-02 8.311244461692667e-01 6.666666666666665e-02
4.214832658219288e-02 8.311244461692667e-01 6.666666666666668e-02
4.214832658219290e-02 8.311244461692666e-01 4.999999999999999e-02
-4.636315924041230e-02 9.142368907861933e-01 4.999999999999999e-02
-4.636315924041234e-02 9.142368907861933e-01 6.666666666666668e-02
4.636315924041214e-02 9.142368907861933e-01 6.666666666666669e-02
4.636315924041218e-02 9.142368907861933e-01 4.999999999999999e-02
-4.636315924041230e-02 9.142368907861933e-01 4.999999999999999e-02
-4.636315924041234e-02 9.142368907861933e-01 6.666666666666668e-02
4.636315924041214e-02 9.142368907861933e-01 6.666666666666669e-02
4.636315924041218e-02 9.142368907861933e-01 4.999999999999999e-02
-5.064732920979916e-02 9.987166004647735e-01 4.999999999999999e-02
-5.064732920979921e-02 9.987166004647734e-01 6.666666666666669e-02
[...]
  <PointData>
        <DataArray type="Float64" Name="conductivity" NumberOfComponents="9" format="ascii">
9.349962245880023e+02 2.411633251063350e+02 0.000000000000000e+00 2.411633251063350e+02 6.600377541199748e+01 0.000000000000000e+00 0.000000000000000e+00 0.000000000000000e+00 1.000000000000000e+00
9.349962245880024e+02 2.411633251063350e+02 0.000000000000000e+00 2.411633251063350e+02 6.600377541199748e+01 0.000000000000000e+00 0.000000000000000e+00 0.000000000000000e+00 1.000000000000000e+00
7.496632617759803e+02 1.487636121431739e+02 0.000000000000000e+00 1.487636121431739e+02 2.635220491555915e+01 0.000000000000000e+00 0.000000000000000e+00 0.000000000000000e+00 1.000000000000000e+00
7.496632617759802e+02 1.487636121431739e+02 0.000000000000000e+00 1.487636121431739e+02 2.635220491555916e+01 0.000000000000000e+00 0.000000000000000e+00 0.000000000000000e+00 1.000000000000000e+00
8.140499988160283e+02 2.411615809817916e+02 0.000000000000000e+00 2.411615809817916e+02 6.600281154332691e+01 0.000000000000000e+00 0.000000000000000e+00 0.000000000000000e+00 1.000000000000000e+00
8.140499988160285e+02 2.411615809817916e+02 0.000000000000000e+00 2.411615809817916e+02 6.600281154332690e+01 0.000000000000000e+00 0.000000000000000e+00 0.000000000000000e+00 1.000000000000000e+00
6.286973480321960e+02 1.487624710390864e+02 0.000000000000000e+00 1.487624710390864e+02 2.635185071969348e+01 0.000000000000000e+00 0.000000000000000e+00 0.000000000000000e+00 1.000000000000000e+00
6.286973480321957e+02 1.487624710390863e+02 0.000000000000000e+00 1.487624710390863e+02 2.635185071969348e+01 0.000000000000000e+00 0.000000000000000e+00 0.000000000000000e+00 1.000000000000000e+00
8.140499988160283e+02 2.411615809817916e+02 0.000000000000000e+00 2.411615809817916e+02 6.600281154332691e+01 0.000000000000000e+00 0.000000000000000e+00 0.000000000000000e+00 1.000000000000000e+00
8.140499988160285e+02 2.411615809817916e+02 0.000000000000000e+00 2.411615809817916e+02 6.600281154332690e+01 0.000000000000000e+00 0.000000000000000e+00 0.000000000000000e+00 1.000000000000000e+00
6.286973480321960e+02 1.487624710390864e+02 0.000000000000000e+00 1.487624710390864e+02 2.635185071969348e+01 0.000000000000000e+00 0.000000000000000e+00 0.000000000000000e+00 1.000000000000000e+00
6.286973480321957e+02 1.487624710390863e+02 0.000000000000000e+00 1.487624710390863e+02 2.635185071969348e+01 0.000000000000000e+00 0.000000000000000e+00 0.000000000000000e+00 1.000000000000000e+00
7.100047355847272e+02 2.411600805803027e+02 0.000000000000000e+00 2.411600805803027e+02 6.600198236516194e+01 0.000000000000000e+00 0.000000000000000e+00 0.000000000000000e+00 1.000000000000000e+00
7.100047355847271e+02 2.411600805803027e+02 0.000000000000000e+00 2.411600805803027e+02 6.600198236516194e+01 0.000000000000000e+00 0.000000000000000e+00 0.000000000000000e+00 1.000000000000000e+00
5.246484539420658e+02 1.487614895178075e+02 0.000000000000000e+00 1.487614895178075e+02 2.635154605793404e+01 0.000000000000000e+00 0.000000000000000e+00 0.000000000000000e+00 1.000000000000000e+00
5.246484539420658e+02 1.487614895178075e+02 0.000000000000000e+00 1.487614895178075e+02 2.635154605793405e+01 0.000000000000000e+00 0.000000000000000e+00 0.000000000000000e+00 1.000000000000000e+00
7.100047355847272e+02 2.411600805803027e+02 0.000000000000000e+00 2.411600805803027e+02 6.600198236516194e+01 0.000000000000000e+00 0.000000000000000e+00 0.000000000000000e+00 1.000000000000000e+00
7.100047355847271e+02 2.411600805803027e+02 0.000000000000000e+00 2.411600805803027e+02 6.600198236516194e+01 0.000000000000000e+00 0.000000000000000e+00 0.000000000000000e+00 1.000000000000000e+00
5.246484539420658e+02 1.487614895178075e+02 0.000000000000000e+00 1.487614895178075e+02 2.635154605793404e+01 0.000000000000000e+00 0.000000000000000e+00 0.000000000000000e+00 1.000000000000000e+00
5.246484539420658e+02 1.487614895178075e+02 0.000000000000000e+00 1.487614895178075e+02 2.635154605793405e+01 0.000000000000000e+00 0.000000000000000e+00 0.000000000000000e+00 1.000000000000000e+00
7.100047355847269e+02 2.411600805803027e+02 0.000000000000000e+00 2.411600805803027e+02 6.600198236516191e+01 0.000000000000000e+00 0.000000000000000e+00 0.000000000000000e+00 1.000000000000000e+00
7.100047355847270e+02 2.411600805803027e+02 0.000000000000000e+00 2.411600805803027e+02 6.600198236516192e+01 0.000000000000000e+00 0.000000000000000e+00 0.000000000000000e+00 1.000000000000000e+00
6.433959824361639e+02 1.487614895178075e+02 0.000000000000000e+00 1.487614895178075e+02 2.635154605793406e+01 0.000000000000000e+00 0.000000000000000e+00 0.000000000000000e+00 1.000000000000000e+00
6.433959824361641e+02 1.487614895178075e+02 0.000000000000000e+00 1.487614895178075e+02 2.635154605793406e+01 0.000000000000000e+00 0.000000000000000e+00 0.000000000000000e+00 1.000000000000000e+00
7.100047355847269e+02 2.411600805803027e+02 0.000000000000000e+00 2.411600805803027e+02 6.600198236516191e+01 0.000000000000000e+00 0.000000000000000e+00 0.000000000000000e+00 1.000000000000000e+00
7.100047355847270e+02 2.411600805803027e+02 0.000000000000000e+00 2.411600805803027e+02 6.600198236516192e+01 0.000000000000000e+00 0.000000000000000e+00 0.000000000000000e+00 1.000000000000000e+00
6.433959824361639e+02 1.487614895178075e+02 0.000000000000000e+00 1.487614895178075e+02 2.635154605793406e+01 0.000000000000000e+00 0.000000000000000e+00 0.000000000000000e+00 1.000000000000000e+00
6.433959824361641e+02 1.487614895178075e+02 0.000000000000000e+00 1.487614895178075e+02 2.635154605793406e+01 0.000000000000000e+00 0.000000000000000e+00 0.000000000000000e+00 1.000000000000000e+00
7.100047355847266e+02 2.411600805803027e+02 0.000000000000000e+00 2.411600805803027e+02 6.600198236516189e+01 0.000000000000000e+00 0.000000000000000e+00 0.000000000000000e+00 1.000000000000000e+00
7.100047355847269e+02 2.411600805803027e+02 0.000000000000000e+00 2.411600805803027e+02 6.600198236516194e+01 0.000000000000000e+00 0.000000000000000e+00 0.000000000000000e+00 1.000000000000000e+00
7.496437710887783e+02 1.487614895178076e+02 0.000000000000000e+00 1.487614895178076e+02 2.635154605793407e+01 0.000000000000000e+00 0.000000000000000e+00 0.000000000000000e+00 1.000000000000000e+00
7.496437710887782e+02 1.487614895178075e+02 0.000000000000000e+00 1.487614895178075e+02 2.635154605793406e+01 0.000000000000000e+00 0.000000000000000e+00 0.000000000000000e+00 1.000000000000000e+00
7.100047355847266e+02 2.411600805803027e+02 0.000000000000000e+00 2.411600805803027e+02 6.600198236516189e+01 0.000000000000000e+00 0.000000000000000e+00 0.000000000000000e+00 1.000000000000000e+00
7.100047355847269e+02 2.411600805803027e+02 0.000000000000000e+00 2.411600805803027e+02 6.600198236516194e+01 0.000000000000000e+00 0.000000000000000e+00 0.000000000000000e+00 1.000000000000000e+00
7.496437710887783e+02 1.487614895178076e+02 0.000000000000000e+00 1.487614895178076e+02 2.635154605793407e+01 0.000000000000000e+00 0.000000000000000e+00 0.000000000000000e+00 1.000000000000000e+00
7.496437710887782e+02 1.487614895178075e+02 0.000000000000000e+00 1.487614895178075e+02 2.635154605793406e+01 0.000000000000000e+00 0.000000000000000e+00 0.000000000000000e+00 1.000000000000000e+00
7.099861976763810e+02 2.411558017865324e+02 0.000000000000000e+00 2.411558017865323e+02 6.599960290478896e+01 0.000000000000000e+00 0.000000000000000e+00 0.000000000000000e+00 1.000000000000000e+00
7.099861976763812e+02 2.411558017865324e+02 0.000000000000000e+00 2.411558017865324e+02 6.599960290478899e+01 0.000000000000000e+00 0.000000000000000e+00 0.000000000000000e+00 1.000000000000000e+00
7.496571907023659e+02 1.487586908049128e+02 0.000000000000000e+00 1.487586908049128e+02 2.635066375689967e+01 0.000000000000000e+00 0.000000000000000e+00 0.000000000000000e+00 1.000000000000000e+00
7.496571907023656e+02 1.487586908049127e+02 0.000000000000000e+00 1.487586908049127e+02 2.635066375689965e+01 0.000000000000000e+00 0.000000000000000e+00 0.000000000000000e+00 1.000000000000000e+00
7.099861976763810e+02 2.411558017865324e+02 0.000000000000000e+00 2.411558017865323e+02 6.599960290478896e+01 0.000000000000000e+00 0.000000000000000e+00 0.000000000000000e+00 1.000000000000000e+00
7.099861976763812e+02 2.411558017865324e+02 0.000000000000000e+00 2.411558017865324e+02 6.599960290478899e+01 0.000000000000000e+00 0.000000000000000e+00 0.000000000000000e+00 1.000000000000000e+00
7.496571907023659e+02 1.487586908049128e+02 0.000000000000000e+00 1.487586908049128e+02 2.635066375689967e+01 0.000000000000000e+00 0.000000000000000e+00 0.000000000000000e+00 1.000000000000000e+00
7.496571907023656e+02 1.487586908049127e+02 0.000000000000000e+00 1.487586908049127e+02 2.635066375689965e+01 0.000000000000000e+00 0.000000000000000e+00 0.000000000000000e+00 1.000000000000000e+00
7.099695499712458e+02 2.411519592765956e+02 0.000000000000000e+00 2.411519592765956e+02 6.599746606421714e+01 0.000000000000000e+00 0.000000000000000e+00 0.000000000000000e+00 1.000000000000000e+00
7.099695499712459e+02 2.411519592765956e+02 0.000000000000000e+00 2.411519592765956e+02 6.599746606421716e+01 0.000000000000000e+00 0.000000000000000e+00 0.000000000000000e+00 1.000000000000000e+00
7.496692385953206e+02 1.487561781697203e+02 0.000000000000000e+00 1.487561781697203e+02 2.634987164255544e+01 0.000000000000000e+00 0.000000000000000e+00 0.000000000000000e+00 1.000000000000000e+00
7.496692385953205e+02 1.487561781697203e+02 0.000000000000000e+00 1.487561781697203e+02 2.634987164255542e+01 0.000000000000000e+00 0.000000000000000e+00 0.000000000000000e+00 1.000000000000000e+00
7.496632617759802e+02 1.487636121431739e+02 0.000000000000000e+00 1.487636121431739e+02 2.635220491555916e+01 0.000000000000000e+00 0.000000000000000e+00 0.000000000000000e+00 1.000000000000000e+00
7.496632617759803e+02 1.487636121431739e+02 0.000000000000000e+00 1.487636121431739e+02 2.635220491555915e+01 0.000000000000000e+00 0.000000000000000e+00 0.000000000000000e+00 1.000000000000000e+00
7.698824516666939e+02 5.027388485882671e+01 0.000000000000000e+00 5.027388485882671e+01 6.112186376811459e+00 0.000000000000000e+00 0.000000000000000e+00 0.000000000000000e+00 1.000000000000000e+00
7.698824516666939e+02 5.027388485882677e+01 0.000000000000000e+00 5.027388485882677e+01 6.112186376811466e+00 0.000000000000000e+00 0.000000000000000e+00 0.000000000000000e+00 1.000000000000000e+00
6.286973480321957e+02 1.487624710390863e+02 0.000000000000000e+00 1.487624710390863e+02 2.635185071969348e+01 0.000000000000000e+00 0.000000000000000e+00 0.000000000000000e+00 1.000000000000000e+00
6.286973480321960e+02 1.487624710390864e+02 0.000000000000000e+00 1.487624710390864e+02 2.635185071969348e+01 0.000000000000000e+00 0.000000000000000e+00 0.000000000000000e+00 1.000000000000000e+00
7.698844189777368e+02 5.027348862740235e+01 0.000000000000000e+00 5.027348862740235e+01 6.112149733884225e+00 0.000000000000000e+00 0.000000000000000e+00 0.000000000000000e+00 1.000000000000000e+00
7.698844189777368e+02 5.027348862740237e+01 0.000000000000000e+00 5.027348862740237e+01 6.112149733884227e+00 0.000000000000000e+00 0.000000000000000e+00 0.000000000000000e+00 1.000000000000000e+00
6.286973480321957e+02 1.487624710390863e+02 0.000000000000000e+00 1.487624710390863e+02 2.635185071969348e+01 0.000000000000000e+00 0.000000000000000e+00 0.000000000000000e+00 1.000000000000000e+00
6.286973480321960e+02 1.487624710390864e+02 0.000000000000000e+00 1.487624710390864e+02 2.635185071969348e+01 0.000000000000000e+00 0.000000000000000e+00 0.000000000000000e+00 1.000000000000000e+00
7.698844189777368e+02 5.027348862740235e+01 0.000000000000000e+00 5.027348862740235e+01 6.112149733884225e+00 0.000000000000000e+00 0.000000000000000e+00 0.000000000000000e+00 1.000000000000000e+00
7.698844189777368e+02 5.027348862740237e+01 0.000000000000000e+00 5.027348862740237e+01 6.112149733884227e+00 0.000000000000000e+00 0.000000000000000e+00 0.000000000000000e+00 1.000000000000000e+00
5.246484539420658e+02 1.487614895178075e+02 0.000000000000000e+00 1.487614895178075e+02 2.635154605793405e+01 0.000000000000000e+00 0.000000000000000e+00 0.000000000000000e+00 1.000000000000000e+00
5.246484539420658e+02 1.487614895178075e+02 0.000000000000000e+00 1.487614895178075e+02 2.635154605793404e+01 0.000000000000000e+00 0.000000000000000e+00 0.000000000000000e+00 1.000000000000000e+00
7.698861110532494e+02 5.027314783050964e+01 0.000000000000000e+00 5.027314783050964e+01 6.112118217464849e+00 0.000000000000000e+00 0.000000000000000e+00 0.000000000000000e+00 1.000000000000000e+00
7.698861110532494e+02 5.027314783050964e+01 0.000000000000000e+00 5.027314783050964e+01 6.112118217464849e+00 0.000000000000000e+00 0.000000000000000e+00 0.000000000000000e+00 1.000000000000000e+00
5.246484539420658e+02 1.487614895178075e+02 0.000000000000000e+00 1.487614895178075e+02 2.635154605793405e+01 0.000000000000000e+00 0.000000000000000e+00 0.000000000000000e+00 1.000000000000000e+00
5.246484539420658e+02 1.487614895178075e+02 0.000000000000000e+00 1.487614895178075e+02 2.635154605793404e+01 0.000000000000000e+00 0.000000000000000e+00 0.000000000000000e+00 1.000000000000000e+00
7.698861110532494e+02 5.027314783050964e+01 0.000000000000000e+00 5.027314783050964e+01 6.112118217464849e+00 0.000000000000000e+00 0.000000000000000e+00 0.000000000000000e+00 1.000000000000000e+00
7.698861110532494e+02 5.027314783050964e+01 0.000000000000000e+00 5.027314783050964e+01 6.112118217464849e+00 0.000000000000000e+00 0.000000000000000e+00 0.000000000000000e+00 1.000000000000000e+00
6.433959824361641e+02 1.487614895178075e+02 0.000000000000000e+00 1.487614895178075e+02 2.635154605793406e+01 0.000000000000000e+00 0.000000000000000e+00 0.000000000000000e+00 1.000000000000000e+00
6.433959824361639e+02 1.487614895178075e+02 0.000000000000000e+00 1.487614895178075e+02 2.635154605793406e+01 0.000000000000000e+00 0.000000000000000e+00 0.000000000000000e+00 1.000000000000000e+00
8.886370456048170e+02 5.027314783050967e+01 0.000000000000000e+00 5.027314783050967e+01 6.112118217464850e+00 0.000000000000000e+00 0.000000000000000e+00 0.000000000000000e+00 1.000000000000000e+00
8.886370456048169e+02 5.027314783050966e+01 0.000000000000000e+00 5.027314783050966e+01 6.112118217464850e+00 0.000000000000000e+00 0.000000000000000e+00 0.000000000000000e+00 1.000000000000000e+00
6.433959824361641e+02 1.487614895178075e+02 0.000000000000000e+00 1.487614895178075e+02 2.635154605793406e+01 0.000000000000000e+00 0.000000000000000e+00 0.000000000000000e+00 1.000000000000000e+00
6.433959824361639e+02 1.487614895178075e+02 0.000000000000000e+00 1.487614895178075e+02 2.635154605793406e+01 0.000000000000000e+00 0.000000000000000e+00 0.000000000000000e+00 1.000000000000000e+00
8.886370456048170e+02 5.027314783050967e+01 0.000000000000000e+00 5.027314783050967e+01 6.112118217464850e+00 0.000000000000000e+00 0.000000000000000e+00 0.000000000000000e+00 1.000000000000000e+00
8.886370456048169e+02 5.027314783050966e+01 0.000000000000000e+00 5.027314783050966e+01 6.112118217464850e+00 0.000000000000000e+00 0.000000000000000e+00 0.000000000000000e+00 1.000000000000000e+00
7.496437710887782e+02 1.487614895178075e+02 0.000000000000000e+00 1.487614895178075e+02 2.635154605793406e+01 0.000000000000000e+00 0.000000000000000e+00 0.000000000000000e+00 1.000000000000000e+00
7.496437710887783e+02 1.487614895178076e+02 0.000000000000000e+00 1.487614895178076e+02 2.635154605793407e+01 0.000000000000000e+00 0.000000000000000e+00 0.000000000000000e+00 1.000000000000000e+00
9.948878817825350e+02 5.027314783050970e+01 0.000000000000000e+00 5.027314783050970e+01 6.112118217464853e+00 0.000000000000000e+00 0.000000000000000e+00 0.000000000000000e+00 1.000000000000000e+00
9.948878817825351e+02 5.027314783050965e+01 0.000000000000000e+00 5.027314783050965e+01 6.112118217464849e+00 0.000000000000000e+00 0.000000000000000e+00 0.000000000000000e+00 1.000000000000000e+00
7.496437710887782e+02 1.487614895178075e+02 0.000000000000000e+00 1.487614895178075e+02 2.635154605793406e+01 0.000000000000000e+00 0.000000000000000e+00 0.000000000000000e+00 1.000000000000000e+00
7.496437710887783e+02 1.487614895178076e+02 0.000000000000000e+00 1.487614895178076e+02 2.635154605793407e+01 0.000000000000000e+00 0.000000000000000e+00 0.000000000000000e+00 1.000000000000000e+00
9.948878817825350e+02 5.027314783050970e+01 0.000000000000000e+00 5.027314783050970e+01 6.112118217464853e+00 0.000000000000000e+00 0.000000000000000e+00 0.000000000000000e+00 1.000000000000000e+00
9.948878817825351e+02 5.027314783050965e+01 0.000000000000000e+00 5.027314783050965e+01 6.112118217464849e+00 0.000000000000000e+00 0.000000000000000e+00 0.000000000000000e+00 1.000000000000000e+00
7.496571907023656e+02 1.487586908049127e+02 0.000000000000000e+00 1.487586908049127e+02 2.635066375689965e+01 0.000000000000000e+00 0.000000000000000e+00 0.000000000000000e+00 1.000000000000000e+00
7.496571907023659e+02 1.487586908049128e+02 0.000000000000000e+00 1.487586908049128e+02 2.635066375689967e+01 0.000000000000000e+00 0.000000000000000e+00 0.000000000000000e+00 1.000000000000000e+00
9.948879846326174e+02 5.027217614389727e+01 0.000000000000000e+00 5.027217614389727e+01 6.112015367382680e+00 0.000000000000000e+00 0.000000000000000e+00 0.000000000000000e+00 1.000000000000000e+00
9.948879846326173e+02 5.027217614389718e+01 0.000000000000000e+00 5.027217614389718e+01 6.112015367382671e+00 0.000000000000000e+00 0.000000000000000e+00 0.000000000000000e+00 1.000000000000000e+00
7.496571907023656e+02 1.487586908049127e+02 0.000000000000000e+00 1.487586908049127e+02 2.635066375689965e+01 0.000000000000000e+00 0.000000000000000e+00 0.000000000000000e+00 1.000000000000000e+00
7.496571907023659e+02 1.487586908049128e+02 0.000000000000000e+00 1.487586908049128e+02 2.635066375689967e+01 0.000000000000000e+00 0.000000000000000e+00 0.000000000000000e+00 1.000000000000000e+00
9.948879846326174e+02 5.027217614389727e+01 0.000000000000000e+00 5.027217614389727e+01 6.112015367382680e+00 0.000000000000000e+00 0.000000000000000e+00 0.000000000000000e+00 1.000000000000000e+00
9.948879846326173e+02 5.027217614389718e+01 0.000000000000000e+00 5.027217614389718e+01 6.112015367382671e+00 0.000000000000000e+00 0.000000000000000e+00 0.000000000000000e+00 1.000000000000000e+00
7.496692385953205e+02 1.487561781697203e+02 0.000000000000000e+00 1.487561781697203e+02 2.634987164255542e+01 0.000000000000000e+00 0.000000000000000e+00 0.000000000000000e+00 1.000000000000000e+00
7.496692385953206e+02 1.487561781697203e+02 0.000000000000000e+00 1.487561781697203e+02 2.634987164255544e+01 0.000000000000000e+00 0.000000000000000e+00 0.000000000000000e+00 1.000000000000000e+00
9.948880769565972e+02 5.027130390370705e+01 0.000000000000000e+00 5.027130390370705e+01 6.111923043402818e+00 0.000000000000000e+00 0.000000000000000e+00 0.000000000000000e+00 1.000000000000000e+00
9.948880769565974e+02 5.027130390370699e+01 0.000000000000000e+00 5.027130390370699e+01 6.111923043402813e+00 0.000000000000000e+00 0.000000000000000e+00 0.000000000000000e+00 1.000000000000000e+00
7.698824516666939e+02 5.027388485882677e+01 0.000000000000000e+00 5.027388485882677e+01 6.112186376811466e+00 0.000000000000000e+00 0.000000000000000e+00 0.000000000000000e+00 1.000000000000000e+00
7.698824516666939e+02 5.027388485882671e+01 0.000000000000000e+00 5.027388485882671e+01 6.112186376811459e+00 0.000000000000000e+00 0.000000000000000e+00 0.000000000000000e+00 1.000000000000000e+00
9.948878136231882e+02 -5.027388485882656e+01 0.000000000000000e+00 -5.027388485882656e+01 6.112186376811441e+00 0.000000000000000e+00 0.000000000000000e+00 0.000000000000000e+00 1.000000000000000e+00
9.948878136231883e+02 -5.027388485882653e+01 0.000000000000000e+00 -5.027388485882653e+01 6.112186376811438e+00 0.000000000000000e+00 0.000000000000000e+00 0.000000000000000e+00 1.000000000000000e+00