<?xml version="1.0" ?> 
<!-- 
# vtk DataFile Version 3.0
-->
<VTKFile type="UnstructuredGrid" version="0.1" compressor="vtkZLibDataCompressor" byte_order="LittleEndian">
  <UnstructuredGrid>
    <FieldData>
      <DataArray type="Float64" Name="TIME" NumberOfTuples="1" format="ascii">
1.000000000000000e-08 
      </DataArray>
    </FieldData>

    <Piece NumberOfPoints="44" NumberOfCells="0" >
      <Points>
        <DataArray type="Float64" NumberOfComponents="3" format="ascii">
9.507251239713325e-03 0.000000000000000e+00 2.934791568557376e-02
-9.507245277199573e-03 0.000000000000000e+00 2.933981344823724e-02
9.621898719267210e-03 0.000000000000000e+00 1.443715109473062e-01
-9.621807706740244e-03 0.000000000000000e+00 1.443433982861905e-01
9.918705256752085e-03 0.000000000000000e+00 3.128100626564398e-01
-9.918452787962590e-03 0.000000000000000e+00 3.127736489073704e-01
9.990272075065105e-03 0.000000000000000e+00 9.384303511872748e-01
-9.989839166271698e-03 0.000000000000000e+00 9.384332976757501e-01
9.984791379498301e-03 0.000000000000000e+00 1.106869157321607e+00
-9.984344696719494e-03 0.000000000000000e+00 1.106868213978440e+00
9.991881608739732e-03 0.000000000000000e+00 1.221892840829919e+00
-9.991426135082028e-03 0.000000000000000e+00 1.221891650363236e+00
9.994766351408991e-03 0.000000000000000e+00 1.280588679316806e+00
-9.994306454143597e-03 0.000000000000000e+00 1.280587847425419e+00
9.998465577000149e-03 0.000000000000000e+00 1.395612355263705e+00
-9.997996933594065e-03 0.000000000000000e+00 1.395611888420421e+00
1.000025142351130e-02 0.000000000000000e+00 2.189671923957436e+00
-9.999721589994379e-03 0.000000000000000e+00 2.189671927054518e+00
1.000026033430005e-02 0.000000000000000e+00 2.358110717525194e+00
-9.999717307560664e-03 0.000000000000000e+00 2.358110716511101e+00
1.000027417551986e-02 0.000000000000000e+00 2.473134392736459e+00
-9.999722073891571e-03 0.000000000000000e+00 2.473134392590156e+00
1.000027712341726e-02 0.000000000000000e+00 2.531830230234720e+00
-9.999720367920802e-03 0.000000000000000e+00 2.531830231597048e+00
1.000027374169268e-02 0.000000000000000e+00 2.646853905443403e+00
-9.999707817031191e-03 0.000000000000000e+00 2.646853907891290e+00
1.000028025707542e-02 0.000000000000000e+00 2.815292699003834e+00
-9.999700775957908e-03 0.000000000000000e+00 2.815292697039137e+00
9.999074532938400e-03 0.000000000000000e+00 3.609352267585902e+00
-9.998428498772588e-03 0.000000000000000e+00 3.609352548938464e+00
9.996944436231642e-03 0.000000000000000e+00 3.724375942781083e+00
-9.996288335905778e-03 0.000000000000000e+00 3.724376412855846e+00
9.995303565170243e-03 0.000000000000000e+00 3.783071780254862e+00
-9.994642265902375e-03 0.000000000000000e+00 3.783072494338540e+00
9.990091535666894e-03 0.000000000000000e+00 3.898095455202078e+00
-9.989419880126939e-03 0.000000000000000e+00 3.898096428111935e+00
9.984975045214494e-03 0.000000000000000e+00 4.066534248441976e+00
-9.984288315268408e-03 0.000000000000000e+00 4.066534219251953e+00
9.995227947437242e-03 0.000000000000000e+00 4.234973042773806e+00
-9.994526490176247e-03 0.000000000000000e+00 4.234970368083450e+00
9.885700438862000e-03 0.000000000000000e+00 4.860593765620939e+00
-9.885242205905136e-03 0.000000000000000e+00 4.860630116823952e+00
9.599421117673992e-03 0.000000000000000e+00 4.975616977473886e+00
-9.599129731479838e-03 0.000000000000000e+00 4.975678200511587e+00
        </DataArray>
      </Points>

      <Cells>
        <DataArray type="Int32" Name="connectivity" format="ascii">
        </DataArray>
        <DataArray type="Int32" Name="offsets" format="ascii">
        </DataArray>
        <DataArray type="UInt8" Name="types" format="ascii">
        </DataArray>
      </Cells>

  <PointData>
        <DataArray type="Float64" Name="force" NumberOfComponents="3" format="ascii">
8.778252532450355e-01 0.000000000000000e+00 3.740487440967481e-04
-8.778252532450355e-01 -0.000000000000000e+00 -3.740487440967481e-04
6.817626086825721e-01 0.000000000000000e+00 9.959703580458426e-04
-6.817626086825721e-01 -0.000000000000000e+00 -9.959703580458426e-04
1.512942618979091e-01 0.000000000000000e+00 2.777207942783623e-04
-1.512942618979091e-01 -0.000000000000000e+00 -2.777207942783623e-04
1.861515569593800e-02 0.000000000000000e+00 -2.745197014262878e-06
-1.861515569593800e-02 -0.000000000000000e+00 2.745197014262878e-06
2.887193810767708e-02 0.000000000000000e+00 1.363912059403936e-06
-2.887193810767708e-02 -0.000000000000000e+00 -1.363912059403936e-06
1.562598246496011e-02 0.000000000000000e+00 9.308875068488526e-07
-1.562598246496011e-02 -0.000000000000000e+00 -9.308875068488526e-07
1.023213992492173e-02 0.000000000000000e+00 4.258341121422742e-07
-1.023213992492173e-02 -0.000000000000000e+00 -4.258341121422742e-07
3.313702302027711e-03 0.000000000000000e+00 7.736266672959362e-08
-3.313702302027711e-03 -0.000000000000000e+00 -7.736266672959362e-08
2.528376321005932e-05 0.000000000000000e+00 -3.915300425878024e-12
-2.528376321005932e-05 -0.000000000000000e+00 3.915300425878024e-12
2.094744237590947e-05 0.000000000000000e+00 1.062134187271578e-12
-2.094744237590947e-05 -0.000000000000000e+00 -1.062134187271578e-12
3.513946763478999e-06 0.000000000000000e+00 2.570512519585524e-14
-3.513946763478999e-06 -0.000000000000000e+00 -2.570512519585524e-14
2.350379071501809e-06 0.000000000000000e+00 -1.600993843777215e-13
-2.350379071501809e-06 -0.000000000000000e+00 1.600993843777215e-13
1.727771873072702e-05 0.000000000000000e+00 -2.114697298873167e-12
-1.727771873072702e-05 -0.000000000000000e+00 2.114697298873167e-12
1.777024027653563e-05 0.000000000000000e+00 1.745658804516871e-12
-1.777024027653563e-05 -0.000000000000000e+00 -1.745658804516871e-12
2.339129636044451e-03 0.000000000000000e+00 -3.291011453726687e-08
-2.339129636044451e-03 -0.000000000000000e+00 3.291011453726687e-08
6.338103182384508e-03 0.000000000000000e+00 -1.490195402027824e-07
-6.338103182384508e-03 -0.000000000000000e+00 1.490195402027824e-07
9.415059772938616e-03 0.000000000000000e+00 -3.363260993083887e-07
-9.415059772938616e-03 -0.000000000000000e+00 3.363260993083887e-07
1.917618222086903e-02 0.000000000000000e+00 -9.337914376060415e-07
-1.917618222086903e-02 -0.000000000000000e+00 9.337914376060415e-07
2.875307289480349e-02 0.000000000000000e+00 4.202973537196849e-08
-2.875307289480349e-02 -0.000000000000000e+00 -4.202973537196849e-08
9.594039749648616e-03 0.000000000000000e+00 1.283711897337545e-06
-9.594039749648616e-03 -0.000000000000000e+00 -1.283711897337545e-06
2.121163230457512e-01 0.000000000000000e+00 -3.900008037025325e-04
-2.121163230457512e-01 -0.000000000000000e+00 3.900008037025325e-04
7.207047057029229e-01 0.000000000000000e+00 -2.298284475485228e-03
-7.207047057029229e-01 -0.000000000000000e+00 2.298284475485228e-03
        </DataArray>
        <DataArray type="Float64" Name="gap" format="ascii">
-9.855017568713466e-04
-9.855017568713466e-04
-7.562730394532029e-04
-7.562730394532029e-04
-1.628085341672039e-04
-1.628085341672039e-04
-1.988854140228674e-05
-1.988854140228674e-05
-3.086390150041154e-05
-3.086390150041154e-05
-1.669222071837284e-05
-1.669222071837284e-05
-1.092717713687547e-05
-1.092717713687547e-05
-3.537483956258386e-06
-3.537483956258386e-06
-2.698649408106046e-08
-2.698649408106046e-08
-2.235813926013130e-08
-2.235813926013130e-08
-3.750588572354330e-09
-3.750588572354330e-09
-2.508661892802744e-09
-2.508661892802744e-09
-1.844127597502854e-08
-1.844127597502854e-08
-1.896696657718855e-08
-1.896696657718855e-08
-2.496966309783327e-06
-2.496966309783327e-06
-6.767222336456075e-06
-6.767222336456075e-06
-1.005415617308728e-05
-1.005415617308728e-05
-2.048856051805811e-05
-2.048856051805811e-05
-3.073663949576533e-05
-3.073663949576533e-05
-1.024538344563189e-05
-1.024538344563189e-05
-2.290239372803801e-04
-2.290239372803801e-04
-8.013515327799543e-04
-8.013515327799543e-04
        </DataArray>
      </PointData>

    </Piece>
  </UnstructuredGrid>
</VTKFile>
