<?xml version="1.0" ?> 
<!-- 
# vtk DataFile Version 3.0
-->
<VTKFile type="UnstructuredGrid" version="0.1" compressor="vtkZLibDataCompressor" byte_order="LittleEndian">
  <UnstructuredGrid>
    <FieldData>
      <DataArray type="Float64" Name="TIME" NumberOfTuples="1" format="ascii">
1.000000000000000e+00 
      </DataArray>
    </FieldData>

    <Piece NumberOfPoints="40" NumberOfCells="5" >
      <Points>
        <DataArray type="Float64" NumberOfComponents="3" format="ascii">
-1.000000000000000e+00 -1.000000000000000e+00 4.000000000000000e+00
-1.000000000000000e+00 -1.000000000000000e+00 2.000000000000000e+00
-1.000000000000000e+00 1.000000000000000e+00 2.000000000000000e+00
-1.000000000000000e+00 1.000000000000000e+00 4.000000000000000e+00
1.000000000000000e+00 -1.000000000000000e+00 4.000000000000000e+00
1.000000000000000e+00 -1.000000000000000e+00 2.000000000000000e+00
1.000000000000000e+00 1.000000000000000e+00 2.000000000000000e+00
1.000000000000000e+00 1.000000000000000e+00 4.000000000000000e+00
-1.000000000000000e+00 -1.000000000000000e+00 2.000000000000000e+00
-1.000000000000000e+00 -1.000000000000000e+00 0.000000000000000e+00
-1.000000000000000e+00 1.000000000000000e+00 0.000000000000000e+00
-1.000000000000000e+00 1.000000000000000e+00 2.000000000000000e+00
1.000000000000000e+00 -1.000000000000000e+00 2.000000000000000e+00
1.000000000000000e+00 -1.000000000000000e+00 0.000000000000000e+00
1.000000000000000e+00 1.000000000000000e+00 0.000000000000000e+00
1.000000000000000e+00 1.000000000000000e+00 2.000000000000000e+00
-1.000000000000000e+00 -1.000000000000000e+00 0.000000000000000e+00
-1.000000000000000e+00 -1.000000000000000e+00 -2.000000000000000e+00
-1.000000000000000e+00 1.000000000000000e+00 -2.000000000000000e+00
-1.000000000000000e+00 1.000000000000000e+00 0.000000000000000e+00
1.000000000000000e+00 -1.000000000000000e+00 0.000000000000000e+00
1.000000000000000e+00 -1.000000000000000e+00 -2.000000000000000e+00
1.000000000000000e+00 1.000000000000000e+00 -2.000000000000000e+00
1.000000000000000e+00 1.000000000000000e+00 0.000000000000000e+00
-1.000000000000000e+00 -1.000000000000000e+00 -2.000000000000000e+00
-1.000000000000000e+00 -1.000000000000000e+00 -4.000000000000000e+00
-1.000000000000000e+00 1.000000000000000e+00 -4.000000000000000e+00
-1.000000000000000e+00 1.000000000000000e+00 -2.000000000000000e+00
1.000000000000000e+00 -1.000000000000000e+00 -2.000000000000000e+00
1.000000000000000e+00 -1.000000000000000e+00 -4.000000000000000e+00
1.000000000000000e+00 1.000000000000000e+00 -4.000000000000000e+00
1.000000000000000e+00 1.000000000000000e+00 -2.000000000000000e+00
-1.000000000000000e+00 -1.000000000000000e+00 4.600000000000000e+00
-1.000000000000000e+00 -1.000000000000000e+00 2.600000000000000e+00
-1.000000000000000e+00 1.000000000000000e+00 2.600000000000000e+00
-1.000000000000000e+00 1.000000000000000e+00 4.600000000000000e+00
1.000000000000000e+00 -1.000000000000000e+00 4.600000000000000e+00
1.000000000000000e+00 -1.000000000000000e+00 2.600000000000000e+00
1.000000000000000e+00 1.000000000000000e+00 2.600000000000000e+00
1.000000000000000e+00 1.000000000000000e+00 4.600000000000000e+00
        </DataArray>
      </Points>

      <Cells>
        <DataArray type="Int32" Name="connectivity" format="ascii">
0 1 2 3 4 5 6 7 8 9 10 11 12 13 14 15 16 17 18 19 20 21 22 23 24 25 26 27 28 29 30 31 32 33 34 35 36 37 38 39 
        </DataArray>
        <DataArray type="Int32" Name="offsets" format="ascii">
8 16 24 32 40 
        </DataArray>
        <DataArray type="UInt8" Name="types" format="ascii">
12 12 12 12 12 
        </DataArray>
      </Cells>

  <PointData>
        <DataArray type="Float64" Name="displacement" NumberOfComponents="3" format="ascii">
3.255350357485360e-18 1.478894870960413e-18 4.000000000000003e-03
1.764699520376857e-18 1.038163130298113e-18 3.000000000000002e-03
1.494030765569106e-18 1.019393460883055e-18 3.000000000000002e-03
2.189168660828421e-18 9.629260845262566e-19 4.000000000000003e-03
2.591708735994041e-18 1.717666114205706e-18 4.000000000000000e-03
1.956704764812996e-18 1.395007285345594e-18 3.000000000000001e-03
1.431500142522104e-18 1.437576364527351e-18 3.000000000000001e-03
2.149982488161185e-18 1.826319976261371e-18 4.000000000000002e-03
1.764699520376857e-18 1.038163130298113e-18 3.000000000000002e-03
1.150906221227513e-18 7.710245624929642e-19 2.000000000000001e-03
9.349653928408206e-19 8.221019483574772e-19 2.000000000000001e-03
1.494030765569106e-18 1.019393460883055e-18 3.000000000000002e-03
1.956704764812996e-18 1.395007285345594e-18 3.000000000000001e-03
9.861069219352509e-19 9.513418311387375e-19 2.000000000000001e-03
1.003592412855724e-18 8.997144127171829e-19 2.000000000000000e-03
1.431500142522104e-18 1.437576364527351e-18 3.000000000000001e-03
1.150906221227513e-18 7.710245624929642e-19 2.000000000000001e-03
1.821445344534769e-19 3.528382732664449e-19 1.000000000000001e-03
2.721175286151979e-19 3.354077207032783e-19 1.000000000000001e-03
9.349653928408206e-19 8.221019483574772e-19 2.000000000000001e-03
9.861069219352509e-19 9.513418311387375e-19 2.000000000000001e-03
2.383232085000158e-19 2.834316463914835e-19 1.000000000000001e-03
2.485036750523262e-19 3.036898285104532e-19 1.000000000000000e-03
1.003592412855724e-18 8.997144127171829e-19 2.000000000000000e-03
1.821445344534769e-19 3.528382732664449e-19 1.000000000000001e-03
0.000000000000000e+00 0.000000000000000e+00 0.000000000000000e+00
0.000000000000000e+00 0.000000000000000e+00 0.000000000000000e+00
2.721175286151979e-19 3.354077207032783e-19 1.000000000000001e-03
2.383232085000158e-19 2.834316463914835e-19 1.000000000000001e-03
0.000000000000000e+00 0.000000000000000e+00 0.000000000000000e+00
0.000000000000000e+00 0.000000000000000e+00 0.000000000000000e+00
2.485036750523262e-19 3.036898285104532e-19 1.000000000000000e-03
0.000000000000000e+00 0.000000000000000e+00 0.000000000000000e+00
0.000000000000000e+00 0.000000000000000e+00 0.000000000000000e+00
0.000000000000000e+00 0.000000000000000e+00 0.000000000000000e+00
0.000000000000000e+00 0.000000000000000e+00 0.000000000000000e+00
0.000000000000000e+00 0.000000000000000e+00 0.000000000000000e+00
0.000000000000000e+00 0.000000000000000e+00 0.000000000000000e+00
0.000000000000000e+00 0.000000000000000e+00 0.000000000000000e+00
0.000000000000000e+00 0.000000000000000e+00 0.000000000000000e+00
        </DataArray>
        <DataArray type="Float64" Name="node_gid" format="ascii">
0.000000000000000e+00
1.000000000000000e+00
2.000000000000000e+00
3.000000000000000e+00
4.000000000000000e+00
5.000000000000000e+00
6.000000000000000e+00
7.000000000000000e+00
1.000000000000000e+00
8.000000000000000e+00
9.000000000000000e+00
2.000000000000000e+00
5.000000000000000e+00
1.000000000000000e+01
1.100000000000000e+01
6.000000000000000e+00
8.000000000000000e+00
1.200000000000000e+01
1.300000000000000e+01
9.000000000000000e+00
1.000000000000000e+01
1.400000000000000e+01
1.500000000000000e+01
1.100000000000000e+01
1.200000000000000e+01
1.600000000000000e+01
1.700000000000000e+01
1.300000000000000e+01
1.400000000000000e+01
1.800000000000000e+01
1.900000000000000e+01
1.500000000000000e+01
2.000000000000000e+01
2.100000000000000e+01
2.200000000000000e+01
2.300000000000000e+01
2.400000000000000e+01
2.500000000000000e+01
2.600000000000000e+01
2.700000000000000e+01
        </DataArray>
  </PointData>
  <CellData>
        <DataArray type="Float64" Name="element_ghosting" format="ascii">
0.000000000000000e+00
0.000000000000000e+00
0.000000000000000e+00
0.000000000000000e+00
0.000000000000000e+00
        </DataArray>
        <DataArray type="Float64" Name="element_gid" format="ascii">
0.000000000000000e+00
1.000000000000000e+00
2.000000000000000e+00
3.000000000000000e+00
4.000000000000000e+00
        </DataArray>
        <DataArray type="Float64" Name="element_owner" format="ascii">
0.000000000000000e+00
0.000000000000000e+00
0.000000000000000e+00
0.000000000000000e+00
0.000000000000000e+00
        </DataArray>
      </CellData>

    </Piece>
  </UnstructuredGrid>
</VTKFile>
