<VTKFile type="UnstructuredGrid" version="1.0" byte_order="LittleEndian" header_type="UInt64">
  <UnstructuredGrid>
    <Piece NumberOfPoints="8" NumberOfCells="1">
      <PointData>
        <DataArray type="Float64" Name="fiber1" NumberOfComponents="3" format="ascii" RangeMin="1" RangeMax="1">
          0 1 0 0 1 0
          0 1 0 0 1 0
          0 1 0 0 1 0
          0 1 0 0 1 0
          <InformationKey name="L2_NORM_RANGE" location="vtkDataArray" length="2">
            <Value index="0">
              1
            </Value>
            <Value index="1">
              1
            </Value>
          </InformationKey>
        </DataArray>
        <DataArray type="Float64" Name="fiber2" NumberOfComponents="3" format="ascii" RangeMin="1" RangeMax="1">
          1 0 0 1 0 0
          1 0 0 1 0 0
          1 0 0 1 0 0
          1 0 0 1 0 0
          <InformationKey name="L2_NORM_RANGE" location="vtkDataArray" length="2">
            <Value index="0">
              1
            </Value>
            <Value index="1">
              1
            </Value>
          </InformationKey>
        </DataArray>
        <DataArray type="Float64" Name="fiber3" NumberOfComponents="3" format="ascii" RangeMin="1" RangeMax="1">
          0 0 1 0 0 1
          0 0 1 0 0 1
          0 0 1 0 0 1
          0 0 1 0 0 1
          <InformationKey name="L2_NORM_RANGE" location="vtkDataArray" length="2">
            <Value index="0">
              1
            </Value>
            <Value index="1">
              1
            </Value>
          </InformationKey>
        </DataArray>
        <DataArray type="Float64" Name="fiber4" NumberOfComponents="3" format="ascii" RangeMin="0.9999999999997007" RangeMax="0.9999999999997007">
          0 0.923879532511 0.382683432365 0 0.923879532511 0.382683432365
          0 0.923879532511 0.382683432365 0 0.923879532511 0.382683432365
          0 0.923879532511 0.382683432365 0 0.923879532511 0.382683432365
          0 0.923879532511 0.382683432365 0 0.923879532511 0.382683432365
          <InformationKey name="L2_NORM_RANGE" location="vtkDataArray" length="2">
            <Value index="0">
              1
            </Value>
            <Value index="1">
              1
            </Value>
          </InformationKey>
        </DataArray>
        <DataArray type="Float64" Name="fiber5" NumberOfComponents="3" format="ascii" RangeMin="0.9999999999997007" RangeMax="0.9999999999997007">
          0 0.923879532511 -0.382683432365 0 0.923879532511 -0.382683432365
          0 0.923879532511 -0.382683432365 0 0.923879532511 -0.382683432365
          0 0.923879532511 -0.382683432365 0 0.923879532511 -0.382683432365
          0 0.923879532511 -0.382683432365 0 0.923879532511 -0.382683432365
          <InformationKey name="L2_NORM_RANGE" location="vtkDataArray" length="2">
            <Value index="0">
              1
            </Value>
            <Value index="1">
              1
            </Value>
          </InformationKey>
        </DataArray>
        <DataArray type="Int64" Name="point_set_1" format="ascii" RangeMin="0" RangeMax="1">
          1 1 1 1 0 0
          0 0
        </DataArray>
        <DataArray type="Int64" Name="point_set_3" format="ascii" RangeMin="0" RangeMax="1">
          1 1 0 0 1 1
          0 0
        </DataArray>
        <DataArray type="Int64" Name="point_set_6" format="ascii" RangeMin="0" RangeMax="1">
          1 0 1 0 1 0
          1 0
        </DataArray>
        <DataArray type="Int64" Name="point_set_7" format="ascii" RangeMin="1" RangeMax="1">
          1 1 1 1 1 1
          1 1
        </DataArray>
        <DataArray type="Int64" Name="point_set_4" format="ascii" RangeMin="0" RangeMax="1">
          0 1 0 1 0 1
          0 1
        </DataArray>
        <DataArray type="Int64" Name="point_set_5" format="ascii" RangeMin="0" RangeMax="1">
          0 0 1 1 0 0
          1 1
        </DataArray>
        <DataArray type="Int64" Name="point_set_2" format="ascii" RangeMin="0" RangeMax="1">
          0 0 0 0 1 1
          1 1
        </DataArray>
      </PointData>
      <CellData>
        <DataArray type="Int64" Name="block_id" format="ascii" RangeMin="1" RangeMax="1">
          1
        </DataArray>
      </CellData>
      <Points>
        <DataArray type="Float64" Name="Points" NumberOfComponents="3" format="ascii" RangeMin="0" RangeMax="1.7320508075688772">
          0 0 0 0 1 0
          0 0 1 0 1 1
          1 0 0 1 1 0
          1 0 1 1 1 1
          <InformationKey name="L2_NORM_FINITE_RANGE" location="vtkDataArray" length="2">
            <Value index="0">
              0
            </Value>
            <Value index="1">
              1.7320508076
            </Value>
          </InformationKey>
          <InformationKey name="L2_NORM_RANGE" location="vtkDataArray" length="2">
            <Value index="0">
              0
            </Value>
            <Value index="1">
              1.7320508076
            </Value>
          </InformationKey>
        </DataArray>
      </Points>
      <Cells>
        <DataArray type="Int64" Name="connectivity" format="ascii" RangeMin="0" RangeMax="7">
          0 4 5 1 2 6
          7 3
        </DataArray>
        <DataArray type="Int64" Name="offsets" format="ascii" RangeMin="8" RangeMax="8">
          8
        </DataArray>
        <DataArray type="UInt8" Name="types" format="ascii" RangeMin="12" RangeMax="12">
          12
        </DataArray>
      </Cells>
    </Piece>
  </UnstructuredGrid>
</VTKFile>
