<VTKFile type="UnstructuredGrid" version="1.0" byte_order="LittleEndian" header_type="UInt64">
  <UnstructuredGrid>
    <Piece NumberOfPoints="135" NumberOfCells="56">
      <PointData>
        <DataArray type="Float64" Name="fiber1" NumberOfComponents="3" format="ascii" RangeMin="1" RangeMax="1">
          0 1 0 0 1 0
          0 1 0 0 1 0
          -0.11196447610330786 0.9937122098932426 0 -0.11196447610330824 0.9937122098932426 0
          -0.11196447610330791 0.9937122098932426 0 -0.11196447610330786 0.9937122098932426 0
          0 1 0 0 1 0
          -0.11196447610330786 0.9937122098932426 0 -0.11196447610330786 0.9937122098932426 0
          0 1 0 0 1 0
          -0.11196447610330766 0.9937122098932426 0 -0.11196447610330786 0.9937122098932426 0
          0 1 0 -0.11196447610330786 0.9937122098932426 0
          -0.22252093395631442 0.9749279121818236 0 -0.22252093395631414 0.9749279121818236 0
          -0.22252093395631414 0.9749279121818236 0 -0.22252093395631442 0.9749279121818236 0
          -0.22252093395631442 0.9749279121818236 0 -0.22252093395631442 0.9749279121818236 0
          -0.22252093395631414 0.9749279121818236 0 -0.22252093395631442 0.9749279121818236 0
          -0.22252093395631442 0.9749279121818236 0 -0.3302790619551671 0.9438833303083676 0
          -0.33027906195516715 0.9438833303083676 0 -0.3302790619551672 0.9438833303083676 0
          -0.3302790619551671 0.9438833303083676 0 -0.3302790619551671 0.9438833303083676 0
          -0.3302790619551671 0.9438833303083676 0 -0.3302790619551672 0.9438833303083676 0
          -0.3302790619551671 0.9438833303083676 0 -0.3302790619551671 0.9438833303083676 0
          -0.4338837391175581 0.9009688679024191 0 -0.4338837391175579 0.9009688679024193 0
          -0.43388373911755806 0.9009688679024191 0 -0.4338837391175581 0.9009688679024191 0
          -0.4338837391175581 0.9009688679024191 0 -0.4338837391175581 0.9009688679024191 0
          -0.4338837391175583 0.9009688679024191 0 -0.4338837391175581 0.9009688679024191 0
          -0.4338837391175581 0.9009688679024191 0 -0.5320320765153366 0.8467241992282842 0
          -0.5320320765153366 0.8467241992282841 0 -0.5320320765153367 0.8467241992282842 0
          -0.5320320765153366 0.8467241992282842 0 -0.5320320765153366 0.8467241992282841 0
          -0.5320320765153366 0.8467241992282841 0 -0.5320320765153365 0.8467241992282843 0
          -0.5320320765153366 0.8467241992282842 0 -0.5320320765153366 0.8467241992282841 0
          -0.6234898018587336 0.7818314824680299 0 -0.6234898018587335 0.7818314824680299 0
          -0.6234898018587334 0.7818314824680299 0 -0.6234898018587336 0.7818314824680299 0
          -0.6234898018587336 0.7818314824680299 0 -0.6234898018587336 0.7818314824680299 0
          -0.6234898018587335 0.7818314824680299 0 -0.6234898018587336 0.7818314824680299 0
          -0.6234898018587336 0.7818314824680299 0 -0.7071067811865476 0.7071067811865476 0
          -0.7071067811865475 0.7071067811865477 0 -0.7071067811865476 0.7071067811865476 0
          -0.7071067811865476 0.7071067811865476 0 -0.7071067811865476 0.7071067811865476 0
          -0.7071067811865476 0.7071067811865476 0 -0.7071067811865477 0.7071067811865475 0
          -0.7071067811865476 0.7071067811865476 0 -0.7071067811865476 0.7071067811865476 0
          -0.7818314824680298 0.6234898018587337 0 -0.7818314824680298 0.6234898018587337 0
          -0.7818314824680296 0.6234898018587339 0 -0.7818314824680296 0.6234898018587339 0
          -0.7818314824680298 0.6234898018587336 0 -0.7818314824680296 0.6234898018587338 0
          -0.7818314824680299 0.6234898018587335 0 -0.7818314824680298 0.6234898018587337 0
          -0.7818314824680298 0.6234898018587336 0 -0.8467241992282842 0.5320320765153366 0
          -0.8467241992282843 0.5320320765153365 0 -0.8467241992282842 0.5320320765153365 0
          -0.8467241992282842 0.5320320765153366 0 -0.8467241992282841 0.5320320765153366 0
          -0.8467241992282841 0.5320320765153366 0 -0.8467241992282841 0.5320320765153366 0
          -0.8467241992282842 0.5320320765153366 0 -0.8467241992282841 0.5320320765153366 0
          -0.9009688679024191 0.43388373911755823 0 -0.9009688679024191 0.4338837391175583 0
          -0.900968867902419 0.43388373911755845 0 -0.9009688679024191 0.43388373911755823 0
          -0.9009688679024191 0.43388373911755823 0 -0.9009688679024191 0.43388373911755823 0
          -0.900968867902419 0.43388373911755834 0 -0.9009688679024191 0.43388373911755823 0
          -0.9009688679024191 0.43388373911755823 0 -0.9438833303083676 0.3302790619551671 0
          -0.9438833303083676 0.3302790619551672 0 -0.9438833303083676 0.3302790619551672 0
          -0.9438833303083676 0.3302790619551671 0 -0.9438833303083676 0.3302790619551671 0
          -0.9438833303083676 0.3302790619551671 0 -0.9438833303083676 0.33027906195516715 0
          -0.9438833303083676 0.3302790619551671 0 -0.9438833303083676 0.3302790619551671 0
          -0.9749279121818236 0.22252093395631445 0 -0.9749279121818236 0.22252093395631428 0
          -0.9749279121818236 0.22252093395631428 0 -0.9749279121818236 0.22252093395631445 0
          -0.9749279121818236 0.22252093395631448 0 -0.9749279121818236 0.22252093395631448 0
          -0.9749279121818236 0.22252093395631428 0 -0.9749279121818236 0.22252093395631445 0
          -0.9749279121818236 0.22252093395631448 0 -0.9937122098932426 0.1119644761033079 0
          -0.9937122098932426 0.11196447610330766 0 -0.9937122098932426 0.11196447610330772 0
          -0.9937122098932426 0.1119644761033079 0 -0.9937122098932426 0.11196447610330791 0
          -0.9937122098932426 0.11196447610330791 0 -0.9937122098932426 0.11196447610330781 0
          -0.9937122098932426 0.1119644761033079 0 -0.9937122098932426 0.11196447610330791 0
          -1 0 0 -1 0 0
          -1 0 0 -1 0 0
          -1 0 0 -1 0 0
          -1 0 0 -1 0 0
          -1 0 0
          <InformationKey name="L2_NORM_RANGE" location="vtkDataArray" length="2">
            <Value index="0">
              1
            </Value>
            <Value index="1">
              1
            </Value>
          </InformationKey>
        </DataArray>
        <DataArray type="Float64" Name="fiber2" NumberOfComponents="3" format="ascii" RangeMin="1" RangeMax="1">
          0 6.123233995736766e-17 1 0 6.123233995736766e-17 1
          0 6.123233995736766e-17 1 0 6.123233995736766e-17 1
          -6.855846863906313e-18 6.084732385597011e-17 1 -6.855846863906338e-18 6.084732385597012e-17 1
          -6.855846863906317e-18 6.084732385597011e-17 1 -6.855846863906313e-18 6.084732385597011e-17 1
          0 6.123233995736766e-17 1 0 6.123233995736766e-17 1
          -6.855846863906314e-18 6.084732385597012e-17 1 -6.855846863906314e-18 6.084732385597012e-17 1
          0 6.123233995736766e-17 1 0 6.123233995736766e-17 1
          -6.8558468639063024e-18 6.084732385597012e-17 1 -6.855846863906313e-18 6.084732385597011e-17 1
          0 6.123233995736766e-17 1 -6.855846863906314e-18 6.084732385597012e-17 1
          -1.3625477475644e-17 5.96971173526441e-17 1 -1.3625477475643984e-17 5.969711735264411e-17 1
          -1.3625477475643984e-17 5.969711735264411e-17 1 -1.3625477475644e-17 5.96971173526441e-17 1
          -1.3625477475644001e-17 5.969711735264411e-17 1 -1.3625477475644001e-17 5.969711735264411e-17 1
          -1.3625477475643984e-17 5.969711735264411e-17 1 -1.3625477475644e-17 5.96971173526441e-17 1
          -1.3625477475644001e-17 5.969711735264411e-17 1 -2.0223759802439286e-17 5.779618496153431e-17 1
          -2.022375980243929e-17 5.779618496153431e-17 1 -2.0223759802439295e-17 5.779618496153431e-17 1
          -2.0223759802439286e-17 5.779618496153431e-17 1 -2.0223759802439286e-17 5.779618496153431e-17 1
          -2.0223759802439286e-17 5.779618496153431e-17 1 -2.0223759802439295e-17 5.779618496153431e-17 1
          -2.0223759802439286e-17 5.779618496153431e-17 1 -2.0223759802439286e-17 5.779618496153431e-17 1
          -2.6567716615620138e-17 5.51684320104056e-17 1 -2.6567716615620125e-17 5.516843201040561e-17 1
          -2.6567716615620138e-17 5.5168432010405605e-17 1 -2.6567716615620138e-17 5.51684320104056e-17 1
          -2.656771661562014e-17 5.5168432010405605e-17 1 -2.656771661562014e-17 5.5168432010405605e-17 1
          -2.656771661562015e-17 5.5168432010405605e-17 1 -2.6567716615620138e-17 5.51684320104056e-17 1
          -2.656771661562014e-17 5.5168432010405605e-17 1 -3.2577568977411334e-17 5.1846904017276204e-17 1
          -3.2577568977411334e-17 5.18469040172762e-17 1 -3.257756897741134e-17 5.1846904017276204e-17 1
          -3.2577568977411334e-17 5.1846904017276204e-17 1 -3.2577568977411334e-17 5.18469040172762e-17 1
          -3.2577568977411334e-17 5.18469040172762e-17 1 -3.2577568977411316e-17 5.1846904017276204e-17 1
          -3.2577568977411334e-17 5.1846904017276204e-17 1 -3.2577568977411334e-17 5.18469040172762e-17 1
          -3.8177739507365774e-17 4.787337112385514e-17 1 -3.8177739507365774e-17 4.7873371123855144e-17 1
          -3.817773950736576e-17 4.7873371123855144e-17 1 -3.8177739507365774e-17 4.787337112385514e-17 1
          -3.8177739507365774e-17 4.787337112385514e-17 1 -3.8177739507365774e-17 4.787337112385514e-17 1
          -3.8177739507365774e-17 4.7873371123855144e-17 1 -3.8177739507365774e-17 4.787337112385514e-17 1
          -3.8177739507365774e-17 4.787337112385514e-17 1 -4.329780281177466e-17 4.329780281177466e-17 1
          -4.329780281177466e-17 4.3297802811774677e-17 1 -4.329780281177466e-17 4.329780281177466e-17 1
          -4.329780281177466e-17 4.329780281177466e-17 1 -4.329780281177467e-17 4.329780281177467e-17 1
          -4.329780281177467e-17 4.329780281177467e-17 1 -4.3297802811774677e-17 4.329780281177466e-17 1
          -4.329780281177466e-17 4.329780281177466e-17 1 -4.329780281177467e-17 4.329780281177467e-17 1
          -4.787337112385514e-17 3.8177739507365787e-17 1 -4.787337112385514e-17 3.8177739507365787e-17 1
          -4.787337112385511e-17 3.817773950736579e-17 1 -4.787337112385511e-17 3.817773950736579e-17 1
          -4.787337112385514e-17 3.817773950736578e-17 1 -4.787337112385512e-17 3.817773950736579e-17 1
          -4.7873371123855144e-17 3.8177739507365774e-17 1 -4.787337112385514e-17 3.8177739507365787e-17 1
          -4.787337112385514e-17 3.817773950736578e-17 1 -5.1846904017276204e-17 3.2577568977411334e-17 1
          -5.1846904017276204e-17 3.2577568977411316e-17 1 -5.1846904017276204e-17 3.257756897741133e-17 1
          -5.1846904017276204e-17 3.2577568977411334e-17 1 -5.18469040172762e-17 3.2577568977411334e-17 1
          -5.18469040172762e-17 3.2577568977411334e-17 1 -5.18469040172762e-17 3.2577568977411334e-17 1
          -5.1846904017276204e-17 3.2577568977411334e-17 1 -5.18469040172762e-17 3.2577568977411334e-17 1
          -5.51684320104056e-17 2.6567716615620144e-17 1 -5.51684320104056e-17 2.6567716615620147e-17 1
          -5.516843201040559e-17 2.6567716615620156e-17 1 -5.51684320104056e-17 2.6567716615620144e-17 1
          -5.5168432010405605e-17 2.6567716615620147e-17 1 -5.5168432010405605e-17 2.6567716615620147e-17 1
          -5.516843201040559e-17 2.656771661562015e-17 1 -5.51684320104056e-17 2.6567716615620144e-17 1
          -5.5168432010405605e-17 2.6567716615620147e-17 1 -5.779618496153431e-17 2.0223759802439286e-17 1
          -5.779618496153431e-17 2.0223759802439295e-17 1 -5.779618496153431e-17 2.0223759802439295e-17 1
          -5.779618496153431e-17 2.0223759802439286e-17 1 -5.779618496153431e-17 2.0223759802439286e-17 1
          -5.779618496153431e-17 2.0223759802439286e-17 1 -5.779618496153431e-17 2.022375980243929e-17 1
          -5.779618496153431e-17 2.0223759802439286e-17 1 -5.779618496153431e-17 2.0223759802439286e-17 1
          -5.96971173526441e-17 1.3625477475644001e-17 1 -5.969711735264411e-17 1.3625477475643993e-17 1
          -5.969711735264411e-17 1.3625477475643993e-17 1 -5.96971173526441e-17 1.3625477475644001e-17 1
          -5.969711735264411e-17 1.3625477475644006e-17 1 -5.969711735264411e-17 1.3625477475644006e-17 1
          -5.969711735264411e-17 1.3625477475643993e-17 1 -5.96971173526441e-17 1.3625477475644001e-17 1
          -5.969711735264411e-17 1.3625477475644006e-17 1 -6.084732385597011e-17 6.8558468639063155e-18 1
          -6.084732385597012e-17 6.8558468639063024e-18 1 -6.084732385597012e-17 6.8558468639063055e-18 1
          -6.084732385597011e-17 6.8558468639063155e-18 1 -6.084732385597012e-17 6.855846863906318e-18 1
          -6.084732385597012e-17 6.855846863906318e-18 1 -6.084732385597011e-17 6.855846863906311e-18 1
          -6.084732385597011e-17 6.8558468639063155e-18 1 -6.084732385597012e-17 6.855846863906318e-18 1
          -6.123233995736766e-17 0 1 -6.123233995736766e-17 0 1
          -6.123233995736766e-17 0 1 -6.123233995736766e-17 0 1
          -6.123233995736766e-17 0 1 -6.123233995736766e-17 0 1
          -6.123233995736766e-17 0 1 -6.123233995736766e-17 0 1
          -6.123233995736766e-17 0 1
          <InformationKey name="L2_NORM_RANGE" location="vtkDataArray" length="2">
            <Value index="0">
              1
            </Value>
            <Value index="1">
              1
            </Value>
          </InformationKey>
        </DataArray>
        <DataArray type="Float64" Name="fiber3" NumberOfComponents="3" format="ascii" RangeMin="1" RangeMax="1.0000000000000002">
          0 0.7071067811865476 0.7071067811865475 0 0.7071067811865476 0.7071067811865475
          0 0.7071067811865476 0.7071067811865475 0 0.7071067811865476 0.7071067811865475
          -0.07917084030464815 0.7026606421633818 0.7071067811865476 -0.07917084030464842 0.7026606421633818 0.7071067811865475
          -0.07917084030464819 0.7026606421633818 0.7071067811865476 -0.07917084030464815 0.7026606421633818 0.7071067811865476
          0 0.7071067811865476 0.7071067811865475 0 0.7071067811865476 0.7071067811865475
          -0.07917084030464815 0.7026606421633818 0.7071067811865475 -0.07917084030464815 0.7026606421633818 0.7071067811865475
          0 0.7071067811865476 0.7071067811865475 0 0.7071067811865476 0.7071067811865475
          -0.07917084030464801 0.7026606421633818 0.7071067811865475 -0.07917084030464815 0.7026606421633818 0.7071067811865476
          0 0.7071067811865476 0.7071067811865475 -0.07917084030464815 0.7026606421633818 0.7071067811865475
          -0.15734606135647383 0.6893781378718105 0.7071067811865476 -0.15734606135647364 0.6893781378718105 0.7071067811865475
          -0.15734606135647364 0.6893781378718105 0.7071067811865475 -0.15734606135647383 0.6893781378718105 0.7071067811865476
          -0.15734606135647383 0.6893781378718105 0.7071067811865475 -0.15734606135647383 0.6893781378718105 0.7071067811865475
          -0.15734606135647364 0.6893781378718105 0.7071067811865475 -0.15734606135647383 0.6893781378718105 0.7071067811865476
          -0.15734606135647383 0.6893781378718105 0.7071067811865475 -0.23354256439243057 0.6674263035099888 0.7071067811865476
          -0.2335425643924306 0.6674263035099888 0.7071067811865476 -0.2335425643924306 0.6674263035099887 0.7071067811865475
          -0.23354256439243057 0.6674263035099888 0.7071067811865476 -0.23354256439243057 0.6674263035099888 0.7071067811865476
          -0.23354256439243057 0.6674263035099888 0.7071067811865476 -0.2335425643924306 0.6674263035099887 0.7071067811865475
          -0.23354256439243057 0.6674263035099888 0.7071067811865476 -0.23354256439243057 0.6674263035099888 0.7071067811865476
          -0.3068021341766003 0.6370811961317674 0.7071067811865476 -0.3068021341766001 0.6370811961317675 0.7071067811865475
          -0.30680213417660024 0.6370811961317674 0.7071067811865475 -0.3068021341766003 0.6370811961317674 0.7071067811865476
          -0.30680213417660024 0.6370811961317674 0.7071067811865475 -0.30680213417660024 0.6370811961317674 0.7071067811865475
          -0.3068021341766004 0.6370811961317674 0.7071067811865475 -0.3068021341766003 0.6370811961317674 0.7071067811865476
          -0.30680213417660024 0.6370811961317674 0.7071067811865475 -0.37620348911275464 0.5987244230690691 0.7071067811865475
          -0.37620348911275464 0.598724423069069 0.7071067811865475 -0.3762034891127547 0.5987244230690691 0.7071067811865475
          -0.37620348911275464 0.5987244230690691 0.7071067811865475 -0.37620348911275464 0.598724423069069 0.7071067811865475
          -0.37620348911275464 0.598724423069069 0.7071067811865475 -0.37620348911275453 0.5987244230690693 0.7071067811865476
          -0.37620348911275464 0.5987244230690691 0.7071067811865475 -0.37620348911275464 0.598724423069069 0.7071067811865475
          -0.44087386689496744 0.5528383429982754 0.7071067811865476 -0.44087386689496744 0.5528383429982754 0.7071067811865476
          -0.4408738668949673 0.5528383429982754 0.7071067811865476 -0.44087386689496744 0.5528383429982754 0.7071067811865476
          -0.44087386689496744 0.5528383429982754 0.7071067811865476 -0.44087386689496744 0.5528383429982754 0.7071067811865476
          -0.44087386689496744 0.5528383429982754 0.7071067811865476 -0.44087386689496744 0.5528383429982754 0.7071067811865476
          -0.44087386689496744 0.5528383429982754 0.7071067811865476 -0.5000000000000001 0.5000000000000001 0.7071067811865476
          -0.5 0.5000000000000001 0.7071067811865475 -0.5000000000000001 0.5000000000000001 0.7071067811865476
          -0.5000000000000001 0.5000000000000001 0.7071067811865476 -0.5000000000000001 0.5000000000000001 0.7071067811865475
          -0.5000000000000001 0.5000000000000001 0.7071067811865475 -0.5000000000000001 0.5 0.7071067811865475
          -0.5000000000000001 0.5000000000000001 0.7071067811865476 -0.5000000000000001 0.5000000000000001 0.7071067811865475
          -0.5528383429982753 0.4408738668949675 0.7071067811865475 -0.5528383429982753 0.4408738668949675 0.7071067811865475
          -0.5528383429982752 0.44087386689496766 0.7071067811865476 -0.5528383429982752 0.44087386689496766 0.7071067811865476
          -0.5528383429982753 0.44087386689496744 0.7071067811865475 -0.5528383429982752 0.44087386689496766 0.7071067811865476
          -0.5528383429982754 0.44087386689496744 0.7071067811865476 -0.5528383429982753 0.4408738668949675 0.7071067811865475
          -0.5528383429982753 0.44087386689496744 0.7071067811865475 -0.5987244230690691 0.37620348911275464 0.7071067811865475
          -0.5987244230690693 0.37620348911275453 0.7071067811865476 -0.5987244230690691 0.37620348911275453 0.7071067811865475
          -0.5987244230690691 0.37620348911275464 0.7071067811865475 -0.598724423069069 0.37620348911275464 0.7071067811865475
          -0.598724423069069 0.37620348911275464 0.7071067811865475 -0.598724423069069 0.37620348911275464 0.7071067811865475
          -0.5987244230690691 0.37620348911275464 0.7071067811865475 -0.598724423069069 0.37620348911275464 0.7071067811865475
          -0.6370811961317674 0.30680213417660035 0.7071067811865476 -0.6370811961317674 0.3068021341766004 0.7071067811865476
          -0.6370811961317673 0.3068021341766005 0.7071067811865476 -0.6370811961317674 0.30680213417660035 0.7071067811865476
          -0.6370811961317674 0.30680213417660035 0.7071067811865475 -0.6370811961317674 0.30680213417660035 0.7071067811865475
          -0.6370811961317673 0.30680213417660046 0.7071067811865476 -0.6370811961317674 0.30680213417660035 0.7071067811865476
          -0.6370811961317674 0.30680213417660035 0.7071067811865475 -0.6674263035099888 0.23354256439243057 0.7071067811865476
          -0.6674263035099887 0.2335425643924306 0.7071067811865475 -0.6674263035099887 0.2335425643924306 0.7071067811865475
          -0.6674263035099888 0.23354256439243057 0.7071067811865476 -0.6674263035099888 0.23354256439243057 0.7071067811865476
          -0.6674263035099888 0.23354256439243057 0.7071067811865476 -0.6674263035099888 0.2335425643924306 0.7071067811865476
          -0.6674263035099888 0.23354256439243057 0.7071067811865476 -0.6674263035099888 0.23354256439243057 0.7071067811865476
          -0.6893781378718105 0.15734606135647386 0.7071067811865476 -0.6893781378718105 0.15734606135647372 0.7071067811865475
          -0.6893781378718105 0.15734606135647372 0.7071067811865475 -0.6893781378718105 0.15734606135647386 0.7071067811865476
          -0.6893781378718105 0.15734606135647386 0.7071067811865475 -0.6893781378718105 0.15734606135647386 0.7071067811865475
          -0.6893781378718105 0.15734606135647372 0.7071067811865475 -0.6893781378718105 0.15734606135647386 0.7071067811865476
          -0.6893781378718105 0.15734606135647386 0.7071067811865475 -0.7026606421633818 0.07917084030464817 0.7071067811865476
          -0.7026606421633818 0.07917084030464801 0.7071067811865475 -0.7026606421633818 0.07917084030464805 0.7071067811865475
          -0.7026606421633818 0.07917084030464817 0.7071067811865476 -0.7026606421633818 0.07917084030464819 0.7071067811865475
          -0.7026606421633818 0.07917084030464819 0.7071067811865475 -0.7026606421633818 0.07917084030464812 0.7071067811865476
          -0.7026606421633818 0.07917084030464817 0.7071067811865476 -0.7026606421633818 0.07917084030464819 0.7071067811865475
          -0.7071067811865476 0 0.7071067811865475 -0.7071067811865476 0 0.7071067811865475
          -0.7071067811865476 0 0.7071067811865475 -0.7071067811865476 0 0.7071067811865475
          -0.7071067811865476 0 0.7071067811865475 -0.7071067811865476 0 0.7071067811865475
          -0.7071067811865476 0 0.7071067811865475 -0.7071067811865476 0 0.7071067811865475
          -0.7071067811865476 0 0.7071067811865475
          <InformationKey name="L2_NORM_RANGE" location="vtkDataArray" length="2">
            <Value index="0">
              1
            </Value>
            <Value index="1">
              1
            </Value>
          </InformationKey>
        </DataArray>
        <DataArray type="Float64" Name="fiber4" NumberOfComponents="3" format="ascii" RangeMin="1" RangeMax="1.0000000000000002">
          0 0.7071067811865476 -0.7071067811865475 0 0.7071067811865476 -0.7071067811865475
          0 0.7071067811865476 -0.7071067811865475 0 0.7071067811865476 -0.7071067811865475
          -0.07917084030464815 0.7026606421633818 -0.7071067811865476 -0.07917084030464842 0.7026606421633818 -0.7071067811865475
          -0.07917084030464819 0.7026606421633818 -0.7071067811865476 -0.07917084030464815 0.7026606421633818 -0.7071067811865476
          0 0.7071067811865476 -0.7071067811865475 0 0.7071067811865476 -0.7071067811865475
          -0.07917084030464815 0.7026606421633818 -0.7071067811865475 -0.07917084030464815 0.7026606421633818 -0.7071067811865475
          0 0.7071067811865476 -0.7071067811865475 0 0.7071067811865476 -0.7071067811865475
          -0.07917084030464801 0.7026606421633818 -0.7071067811865475 -0.07917084030464815 0.7026606421633818 -0.7071067811865476
          0 0.7071067811865476 -0.7071067811865475 -0.07917084030464815 0.7026606421633818 -0.7071067811865475
          -0.15734606135647383 0.6893781378718105 -0.7071067811865476 -0.15734606135647364 0.6893781378718105 -0.7071067811865475
          -0.15734606135647364 0.6893781378718105 -0.7071067811865475 -0.15734606135647383 0.6893781378718105 -0.7071067811865476
          -0.15734606135647383 0.6893781378718105 -0.7071067811865475 -0.15734606135647383 0.6893781378718105 -0.7071067811865475
          -0.15734606135647364 0.6893781378718105 -0.7071067811865475 -0.15734606135647383 0.6893781378718105 -0.7071067811865476
          -0.15734606135647383 0.6893781378718105 -0.7071067811865475 -0.23354256439243057 0.6674263035099888 -0.7071067811865476
          -0.2335425643924306 0.6674263035099888 -0.7071067811865476 -0.2335425643924306 0.6674263035099887 -0.7071067811865475
          -0.23354256439243057 0.6674263035099888 -0.7071067811865476 -0.23354256439243057 0.6674263035099888 -0.7071067811865476
          -0.23354256439243057 0.6674263035099888 -0.7071067811865476 -0.2335425643924306 0.6674263035099887 -0.7071067811865475
          -0.23354256439243057 0.6674263035099888 -0.7071067811865476 -0.23354256439243057 0.6674263035099888 -0.7071067811865476
          -0.3068021341766003 0.6370811961317674 -0.7071067811865476 -0.3068021341766001 0.6370811961317675 -0.7071067811865475
          -0.30680213417660024 0.6370811961317674 -0.7071067811865475 -0.3068021341766003 0.6370811961317674 -0.7071067811865476
          -0.30680213417660024 0.6370811961317674 -0.7071067811865475 -0.30680213417660024 0.6370811961317674 -0.7071067811865475
          -0.3068021341766004 0.6370811961317674 -0.7071067811865475 -0.3068021341766003 0.6370811961317674 -0.7071067811865476
          -0.30680213417660024 0.6370811961317674 -0.7071067811865475 -0.37620348911275464 0.5987244230690691 -0.7071067811865475
          -0.37620348911275464 0.598724423069069 -0.7071067811865475 -0.3762034891127547 0.5987244230690691 -0.7071067811865475
          -0.37620348911275464 0.5987244230690691 -0.7071067811865475 -0.37620348911275464 0.598724423069069 -0.7071067811865475
          -0.37620348911275464 0.598724423069069 -0.7071067811865475 -0.37620348911275453 0.5987244230690693 -0.7071067811865476
          -0.37620348911275464 0.5987244230690691 -0.7071067811865475 -0.37620348911275464 0.598724423069069 -0.7071067811865475
          -0.44087386689496744 0.5528383429982754 -0.7071067811865476 -0.44087386689496744 0.5528383429982754 -0.7071067811865476
          -0.4408738668949673 0.5528383429982754 -0.7071067811865476 -0.44087386689496744 0.5528383429982754 -0.7071067811865476
          -0.44087386689496744 0.5528383429982754 -0.7071067811865476 -0.44087386689496744 0.5528383429982754 -0.7071067811865476
          -0.44087386689496744 0.5528383429982754 -0.7071067811865476 -0.44087386689496744 0.5528383429982754 -0.7071067811865476
          -0.44087386689496744 0.5528383429982754 -0.7071067811865476 -0.5000000000000001 0.5000000000000001 -0.7071067811865476
          -0.5 0.5000000000000001 -0.7071067811865475 -0.5000000000000001 0.5000000000000001 -0.7071067811865476
          -0.5000000000000001 0.5000000000000001 -0.7071067811865476 -0.5000000000000001 0.5000000000000001 -0.7071067811865475
          -0.5000000000000001 0.5000000000000001 -0.7071067811865475 -0.5000000000000001 0.5 -0.7071067811865475
          -0.5000000000000001 0.5000000000000001 -0.7071067811865476 -0.5000000000000001 0.5000000000000001 -0.7071067811865475
          -0.5528383429982753 0.4408738668949675 -0.7071067811865475 -0.5528383429982753 0.4408738668949675 -0.7071067811865475
          -0.5528383429982752 0.44087386689496766 -0.7071067811865476 -0.5528383429982752 0.44087386689496766 -0.7071067811865476
          -0.5528383429982753 0.44087386689496744 -0.7071067811865475 -0.5528383429982752 0.44087386689496766 -0.7071067811865476
          -0.5528383429982754 0.44087386689496744 -0.7071067811865476 -0.5528383429982753 0.4408738668949675 -0.7071067811865475
          -0.5528383429982753 0.44087386689496744 -0.7071067811865475 -0.5987244230690691 0.37620348911275464 -0.7071067811865475
          -0.5987244230690693 0.37620348911275453 -0.7071067811865476 -0.5987244230690691 0.37620348911275453 -0.7071067811865475
          -0.5987244230690691 0.37620348911275464 -0.7071067811865475 -0.598724423069069 0.37620348911275464 -0.7071067811865475
          -0.598724423069069 0.37620348911275464 -0.7071067811865475 -0.598724423069069 0.37620348911275464 -0.7071067811865475
          -0.5987244230690691 0.37620348911275464 -0.7071067811865475 -0.598724423069069 0.37620348911275464 -0.7071067811865475
          -0.6370811961317674 0.30680213417660035 -0.7071067811865476 -0.6370811961317674 0.3068021341766004 -0.7071067811865476
          -0.6370811961317673 0.3068021341766005 -0.7071067811865476 -0.6370811961317674 0.30680213417660035 -0.7071067811865476
          -0.6370811961317674 0.30680213417660035 -0.7071067811865475 -0.6370811961317674 0.30680213417660035 -0.7071067811865475
          -0.6370811961317673 0.30680213417660046 -0.7071067811865476 -0.6370811961317674 0.30680213417660035 -0.7071067811865476
          -0.6370811961317674 0.30680213417660035 -0.7071067811865475 -0.6674263035099888 0.23354256439243057 -0.7071067811865476
          -0.6674263035099887 0.2335425643924306 -0.7071067811865475 -0.6674263035099887 0.2335425643924306 -0.7071067811865475
          -0.6674263035099888 0.23354256439243057 -0.7071067811865476 -0.6674263035099888 0.23354256439243057 -0.7071067811865476
          -0.6674263035099888 0.23354256439243057 -0.7071067811865476 -0.6674263035099888 0.2335425643924306 -0.7071067811865476
          -0.6674263035099888 0.23354256439243057 -0.7071067811865476 -0.6674263035099888 0.23354256439243057 -0.7071067811865476
          -0.6893781378718105 0.15734606135647386 -0.7071067811865476 -0.6893781378718105 0.15734606135647372 -0.7071067811865475
          -0.6893781378718105 0.15734606135647372 -0.7071067811865475 -0.6893781378718105 0.15734606135647386 -0.7071067811865476
          -0.6893781378718105 0.15734606135647386 -0.7071067811865475 -0.6893781378718105 0.15734606135647386 -0.7071067811865475
          -0.6893781378718105 0.15734606135647372 -0.7071067811865475 -0.6893781378718105 0.15734606135647386 -0.7071067811865476
          -0.6893781378718105 0.15734606135647386 -0.7071067811865475 -0.7026606421633818 0.07917084030464817 -0.7071067811865476
          -0.7026606421633818 0.07917084030464801 -0.7071067811865475 -0.7026606421633818 0.07917084030464805 -0.7071067811865475
          -0.7026606421633818 0.07917084030464817 -0.7071067811865476 -0.7026606421633818 0.07917084030464819 -0.7071067811865475
          -0.7026606421633818 0.07917084030464819 -0.7071067811865475 -0.7026606421633818 0.07917084030464812 -0.7071067811865476