<?xml version="1.0" ?> 
<!-- 
# vtk DataFile Version 3.0
-->
<VTKFile type="UnstructuredGrid" version="0.1" compressor="vtkZLibDataCompressor" byte_order="LittleEndian">
  <UnstructuredGrid>
    <FieldData>
      <DataArray type="Float64" Name="TIME" NumberOfTuples="1" format="ascii">
3.000000000000000e+00 
      </DataArray>
    </FieldData>

    <Piece NumberOfPoints="8" NumberOfCells="2" >
      <Points>
        <DataArray type="Float64" NumberOfComponents="3" format="ascii">
0.000000000000000e+00 5.000000000000000e-01 0.000000000000000e+00
5.000000000000000e-01 5.000000000000001e-01 0.000000000000000e+00
5.000000000000000e-01 1.000000000000000e+00 0.000000000000000e+00
0.000000000000000e+00 1.000000000000000e+00 0.000000000000000e+00
0.000000000000000e+00 0.000000000000000e+00 0.000000000000000e+00
5.000000000000000e-01 0.000000000000000e+00 0.000000000000000e+00
5.000000000000000e-01 5.000000000000001e-01 0.000000000000000e+00
0.000000000000000e+00 5.000000000000000e-01 0.000000000000000e+00
        </DataArray>
      </Points>

      <Cells>
        <DataArray type="Int32" Name="connectivity" format="ascii">
0 1 2 3 4 5 6 7 
        </DataArray>
        <DataArray type="Int32" Name="offsets" format="ascii">
4 8 
        </DataArray>
        <DataArray type="UInt8" Name="types" format="ascii">
9 9 
        </DataArray>
      </Cells>

  <PointData>
        <DataArray type="Float64" Name="displacement" NumberOfComponents="2" format="ascii">
0.000000000000000e+00 0.000000000000000e+00
5.719532275973483e-02 -1.925923247757572e-18
6.046170633938809e-02 -1.599594518916765e-02
0.000000000000000e+00 0.000000000000000e+00
0.000000000000000e+00 0.000000000000000e+00
6.046170633938808e-02 1.599594518916765e-02
5.719532275973483e-02 -1.925923247757572e-18
0.000000000000000e+00 0.000000000000000e+00
        </DataArray>
        <DataArray type="Float64" Name="nodal_GL_strains_xyz" NumberOfComponents="6" format="ascii">
1.208444089025888e-01 -8.884650806147490e-05 0.000000000000000e+00 -2.168404344971009e-18 0.000000000000000e+00 0.000000000000000e+00
1.260294156897535e-01 -3.150442501816562e-02 0.000000000000000e+00 1.431146867680866e-17 0.000000000000000e+00 0.000000000000000e+00
1.272886657265793e-01 -3.150442501816561e-02 0.000000000000000e+00 -4.688866574622620e-03 0.000000000000000e+00 0.000000000000000e+00
1.286575425626451e-01 -8.884650806147663e-05 0.000000000000000e+00 -1.599594518916765e-02 0.000000000000000e+00 0.000000000000000e+00
1.286575425626451e-01 -8.884650806147316e-05 0.000000000000000e+00 1.599594518916765e-02 0.000000000000000e+00 0.000000000000000e+00
1.272886657265794e-01 -3.150442501816563e-02 0.000000000000000e+00 4.688866574622632e-03 0.000000000000000e+00 0.000000000000000e+00
1.260294156897535e-01 -3.150442501816562e-02 0.000000000000000e+00 1.431146867680866e-17 0.000000000000000e+00 0.000000000000000e+00
1.208444089025888e-01 -8.884650806147490e-05 0.000000000000000e+00 -2.168404344971009e-18 0.000000000000000e+00 0.000000000000000e+00
        </DataArray>
        <DataArray type="Float64" Name="nodal_cauchy_stresses_xyz" NumberOfComponents="6" format="ascii">
1.496144792856521e+00 2.971951587907506e-01 3.013964862572052e-01 -1.734723475976807e-17 0.000000000000000e+00 0.000000000000000e+00
1.518274135209901e+00 -1.575596213608355e-03 2.425641193483346e-01 1.474514954580286e-16 0.000000000000000e+00 0.000000000000000e+00
1.534321569267459e+00 4.897551334591117e-03 2.456134740195493e-01 -6.251872294580693e-02 0.000000000000000e+00 0.000000000000000e+00
1.602209057190665e+00 3.237161480827757e-01 3.189964572111089e-01 -1.782280165389030e-01 0.000000000000000e+00 0.000000000000000e+00
1.602209057190665e+00 3.237161480827757e-01 3.189964572111089e-01 1.782280165389030e-01 0.000000000000000e+00 0.000000000000000e+00
1.534321569267460e+00 4.897551334590924e-03 2.456134740195493e-01 6.251872294580707e-02 0.000000000000000e+00 0.000000000000000e+00
1.518274135209901e+00 -1.575596213608355e-03 2.425641193483346e-01 1.474514954580286e-16 0.000000000000000e+00 0.000000000000000e+00
1.496144792856521e+00 2.971951587907506e-01 3.013964862572052e-01 -1.734723475976807e-17 0.000000000000000e+00 0.000000000000000e+00
        </DataArray>
  </PointData>
  <CellData>
        <DataArray type="Float64" Name="element_GL_strains_xyz" NumberOfComponents="6" format="ascii">
1.247509757326170e-01 -1.581825217304481e-02 0.000000000000000e+00 -6.044689179569690e-03 0.000000000000000e+00 0.000000000000000e+00
1.247509757326170e-01 -1.581825217304481e-02 0.000000000000000e+00 6.044689179569692e-03 0.000000000000000e+00 0.000000000000000e+00
        </DataArray>
        <DataArray type="Float64" Name="element_cauchy_stresses_xyz" NumberOfComponents="6" format="ascii">
1.524026783421712e+00 1.536569410826625e-01 2.749253146992388e-01 -7.208765250521548e-02 0.000000000000000e+00 0.000000000000000e+00
1.524026783421712e+00 1.536569410826625e-01 2.749253146992388e-01 7.208765250521550e-02 0.000000000000000e+00 0.000000000000000e+00
        </DataArray>
      </CellData>

    </Piece>
  </UnstructuredGrid>
</VTKFile>
