<?xml version="1.0" ?> 
<!-- 
# vtk DataFile Version 3.0
-->
<VTKFile type="UnstructuredGrid" version="0.1" compressor="vtkZLibDataCompressor" byte_order="LittleEndian">
  <UnstructuredGrid>
    <FieldData>
      <DataArray type="Float64" Name="TIME" NumberOfTuples="1" format="ascii">
1.000000000000000e+00 
      </DataArray>
    </FieldData>

    <Piece NumberOfPoints="8" NumberOfCells="2" >
      <Points>
        <DataArray type="Float64" NumberOfComponents="3" format="ascii">
5.000000000000000e-01 5.000000000000001e-01 0.000000000000000e+00
1.000000000000000e+00 5.000000000000000e-01 0.000000000000000e+00
1.000000000000000e+00 1.000000000000000e+00 0.000000000000000e+00
5.000000000000000e-01 1.000000000000000e+00 0.000000000000000e+00
5.000000000000000e-01 0.000000000000000e+00 0.000000000000000e+00
1.000000000000000e+00 0.000000000000000e+00 0.000000000000000e+00
1.000000000000000e+00 5.000000000000000e-01 0.000000000000000e+00
5.000000000000000e-01 5.000000000000001e-01 0.000000000000000e+00
        </DataArray>
      </Points>

      <Cells>
        <DataArray type="Int32" Name="connectivity" format="ascii">
0 1 2 3 4 5 6 7 
        </DataArray>
        <DataArray type="Int32" Name="offsets" format="ascii">
4 8 
        </DataArray>
        <DataArray type="UInt8" Name="types" format="ascii">
9 9 
        </DataArray>
      </Cells>

  <PointData>
        <DataArray type="Float64" Name="displacement" NumberOfComponents="2" format="ascii">
2.115179997989713e-02 -8.998160919875419e-18
4.416917964213190e-02 7.006744193383210e-18
4.444012111601362e-02 -6.113167257433846e-03
2.244530406075653e-02 -5.819490891942364e-03
2.244530406075652e-02 5.819490891942375e-03
4.444012111601363e-02 6.113167257433836e-03
4.416917964213190e-02 7.006744193383210e-18
2.115179997989713e-02 -8.998160919875419e-18
        </DataArray>
        <DataArray type="Float64" Name="nodal_GL_strains_xyz" NumberOfComponents="6" format="ascii">
4.514026613318003e-02 -1.157401444764442e-02 0.000000000000000e+00 6.830473686658678e-18 0.000000000000000e+00 0.000000000000000e+00
4.709398156413605e-02 -1.215182336183266e-02 0.000000000000000e+00 1.038123580154870e-17 0.000000000000000e+00 0.000000000000000e+00
4.495697326335373e-02 -1.215182336183267e-02 0.000000000000000e+00 -7.225689824732139e-06 0.000000000000000e+00 0.000000000000000e+00
4.545552556987990e-02 -1.157401444764438e-02 0.000000000000000e+00 -1.670020548664519e-03 0.000000000000000e+00 0.000000000000000e+00
4.545552556987971e-02 -1.157401444764446e-02 0.000000000000000e+00 1.670020548664520e-03 0.000000000000000e+00 0.000000000000000e+00
4.495697326335375e-02 -1.215182336183264e-02 0.000000000000000e+00 7.225689824702622e-06 0.000000000000000e+00 0.000000000000000e+00
4.709398156413605e-02 -1.215182336183266e-02 0.000000000000000e+00 1.038123580154870e-17 0.000000000000000e+00 0.000000000000000e+00
4.514026613318003e-02 -1.157401444764442e-02 0.000000000000000e+00 6.830473686658678e-18 0.000000000000000e+00 0.000000000000000e+00
        </DataArray>
        <DataArray type="Float64" Name="nodal_cauchy_stresses_xyz" NumberOfComponents="6" format="ascii">
4.960225535832427e-01 -3.260154066324397e-03 9.036966610198902e-02 6.375108774214766e-17 0.000000000000000e+00 0.000000000000000e+00
5.183722556142930e-01 -3.968767065792923e-03 9.394047488109999e-02 9.974659986866641e-17 0.000000000000000e+00 0.000000000000000e+00
4.922600777463514e-01 -9.592802326100918e-03 8.836808482483896e-02 -3.468985695510829e-04 0.000000000000000e+00 0.000000000000000e+00
4.996745124687785e-01 -1.987071992495300e-03 9.120149826220428e-02 -1.682342273322590e-02 0.000000000000000e+00 0.000000000000000e+00
4.996745124687761e-01 -1.987071992496651e-03 9.120149826220358e-02 1.682342273322589e-02 0.000000000000000e+00 0.000000000000000e+00
4.922600777463516e-01 -9.592802326100488e-03 8.836808482483907e-02 3.468985695508151e-04 0.000000000000000e+00 0.000000000000000e+00
5.183722556142930e-01 -3.968767065792923e-03 9.394047488109999e-02 9.974659986866641e-17 0.000000000000000e+00 0.000000000000000e+00
4.960225535832427e-01 -3.260154066324397e-03 9.036966610198902e-02 6.375108774214766e-17 0.000000000000000e+00 0.000000000000000e+00
        </DataArray>
  </PointData>
  <CellData>
        <DataArray type="Float64" Name="element_GL_strains_xyz" NumberOfComponents="6" format="ascii">
4.602547741374491e-02 -1.186005159249220e-02 0.000000000000000e+00 6.723463299947130e-04 0.000000000000000e+00 0.000000000000000e+00
4.602547741374491e-02 -1.186005159249226e-02 0.000000000000000e+00 -6.723463299947094e-04 0.000000000000000e+00 0.000000000000000e+00
        </DataArray>
        <DataArray type="Float64" Name="element_cauchy_stresses_xyz" NumberOfComponents="6" format="ascii">
5.060484900987215e-01 -3.719140242687936e-03 9.191186847118599e-02 5.457023518965987e-03 0.000000000000000e+00 0.000000000000000e+00
5.060484900987214e-01 -3.719140242688522e-03 9.191186847118583e-02 -5.457023518965952e-03 0.000000000000000e+00 0.000000000000000e+00
        </DataArray>
      </CellData>

    </Piece>
  </UnstructuredGrid>
</VTKFile>
