<?xml version="1.0" ?> 
<!-- 
# vtk DataFile Version 3.0
-->
<VTKFile type="UnstructuredGrid" version="0.1" compressor="vtkZLibDataCompressor" byte_order="LittleEndian">
  <UnstructuredGrid>
    <FieldData>
      <DataArray type="Float64" Name="TIME" NumberOfTuples="1" format="ascii">
1.000000000000000e+00 
      </DataArray>
    </FieldData>

    <Piece NumberOfPoints="8" NumberOfCells="2" >
      <Points>
        <DataArray type="Float64" NumberOfComponents="3" format="ascii">
0.000000000000000e+00 5.000000000000000e-01 0.000000000000000e+00
5.000000000000000e-01 5.000000000000001e-01 0.000000000000000e+00
5.000000000000000e-01 1.000000000000000e+00 0.000000000000000e+00
0.000000000000000e+00 1.000000000000000e+00 0.000000000000000e+00
0.000000000000000e+00 0.000000000000000e+00 0.000000000000000e+00
5.000000000000000e-01 0.000000000000000e+00 0.000000000000000e+00
5.000000000000000e-01 5.000000000000001e-01 0.000000000000000e+00
0.000000000000000e+00 5.000000000000000e-01 0.000000000000000e+00
        </DataArray>
      </Points>

      <Cells>
        <DataArray type="Int32" Name="connectivity" format="ascii">
0 1 2 3 4 5 6 7 
        </DataArray>
        <DataArray type="Int32" Name="offsets" format="ascii">
4 8 
        </DataArray>
        <DataArray type="UInt8" Name="types" format="ascii">
9 9 
        </DataArray>
      </Cells>

  <PointData>
        <DataArray type="Float64" Name="displacement" NumberOfComponents="2" format="ascii">
0.000000000000000e+00 0.000000000000000e+00
2.115179997989713e-02 -8.998160919875419e-18
2.244530406075653e-02 -5.819490891942364e-03
0.000000000000000e+00 0.000000000000000e+00
0.000000000000000e+00 0.000000000000000e+00
2.244530406075652e-02 5.819490891942375e-03
2.115179997989713e-02 -8.998160919875419e-18
0.000000000000000e+00 0.000000000000000e+00
        </DataArray>
        <DataArray type="Float64" Name="nodal_GL_strains_xyz" NumberOfComponents="6" format="ascii">
4.318655070222394e-02 -1.184654234954357e-05 0.000000000000000e+00 -8.348356728138384e-18 0.000000000000000e+00 0.000000000000000e+00
4.514026613318003e-02 -1.157401444764442e-02 0.000000000000000e+00 6.830473686658678e-18 0.000000000000000e+00 0.000000000000000e+00
4.545552556987990e-02 -1.157401444764438e-02 0.000000000000000e+00 -1.670020548664519e-03 0.000000000000000e+00 0.000000000000000e+00
4.595407787640608e-02 -1.184654234954400e-05 0.000000000000000e+00 -5.819490891942362e-03 0.000000000000000e+00 0.000000000000000e+00
4.595407787640619e-02 -1.184654234954313e-05 0.000000000000000e+00 5.819490891942376e-03 0.000000000000000e+00 0.000000000000000e+00
4.545552556987971e-02 -1.157401444764446e-02 0.000000000000000e+00 1.670020548664520e-03 0.000000000000000e+00 0.000000000000000e+00
4.514026613318003e-02 -1.157401444764442e-02 0.000000000000000e+00 6.830473686658678e-18 0.000000000000000e+00 0.000000000000000e+00
4.318655070222394e-02 -1.184654234954357e-05 0.000000000000000e+00 -8.348356728138384e-18 0.000000000000000e+00 0.000000000000000e+00
        </DataArray>
        <DataArray type="Float64" Name="nodal_cauchy_stresses_xyz" NumberOfComponents="6" format="ascii">
5.001469276295093e-01 1.145400917026357e-01 1.151229915256290e-01 -7.979727989493313e-17 0.000000000000000e+00 0.000000000000000e+00
4.960225535832427e-01 -3.260154066324397e-03 9.036966610198902e-02 6.375108774214766e-17 0.000000000000000e+00 0.000000000000000e+00
4.996745124687785e-01 -1.987071992495300e-03 9.120149826220428e-02 -1.682342273322590e-02 0.000000000000000e+00 0.000000000000000e+00
5.335181843193314e-01 1.227591343487414e-01 1.221949589014219e-01 -5.432604941649025e-02 0.000000000000000e+00 0.000000000000000e+00
5.335181843193325e-01 1.227591343487417e-01 1.221949589014222e-01 5.432604941649039e-02 0.000000000000000e+00 0.000000000000000e+00
4.996745124687761e-01 -1.987071992496651e-03 9.120149826220358e-02 1.682342273322589e-02 0.000000000000000e+00 0.000000000000000e+00
4.960225535832427e-01 -3.260154066324397e-03 9.036966610198902e-02 6.375108774214766e-17 0.000000000000000e+00 0.000000000000000e+00
5.001469276295093e-01 1.145400917026357e-01 1.151229915256290e-01 -7.979727989493313e-17 0.000000000000000e+00 0.000000000000000e+00
        </DataArray>
  </PointData>
  <CellData>
        <DataArray type="Float64" Name="element_GL_strains_xyz" NumberOfComponents="6" format="ascii">
4.457031428931502e-02 -5.795797807243291e-03 0.000000000000000e+00 -2.217863652425669e-03 0.000000000000000e+00 0.000000000000000e+00
4.457031428931496e-02 -5.795797807243291e-03 0.000000000000000e+00 2.217863652425670e-03 0.000000000000000e+00 0.000000000000000e+00
        </DataArray>
        <DataArray type="Float64" Name="element_cauchy_stresses_xyz" NumberOfComponents="6" format="ascii">
5.028744042546603e-01 5.702994137814903e-02 1.037803412441582e-01 -2.126917283232155e-02 0.000000000000000e+00 0.000000000000000e+00
5.028744042546597e-01 5.702994137814889e-02 1.037803412441580e-01 2.126917283232155e-02 0.000000000000000e+00 0.000000000000000e+00
        </DataArray>
      </CellData>

    </Piece>
  </UnstructuredGrid>
</VTKFile>
