<?xml version="1.0" ?> 
<!-- 
# vtk DataFile Version 3.0
-->
<VTKFile type="UnstructuredGrid" version="0.1" compressor="vtkZLibDataCompressor" byte_order="LittleEndian">
  <UnstructuredGrid>
    <FieldData>
      <DataArray type="Float64" Name="TIME" NumberOfTuples="1" format="ascii">
2.000000000000000e+00 
      </DataArray>
    </FieldData>

    <Piece NumberOfPoints="8" NumberOfCells="2" >
      <Points>
        <DataArray type="Float64" NumberOfComponents="3" format="ascii">
5.000000000000000e-01 5.000000000000001e-01 0.000000000000000e+00
1.000000000000000e+00 5.000000000000000e-01 0.000000000000000e+00
1.000000000000000e+00 1.000000000000000e+00 0.000000000000000e+00
5.000000000000000e-01 1.000000000000000e+00 0.000000000000000e+00
5.000000000000000e-01 0.000000000000000e+00 0.000000000000000e+00
1.000000000000000e+00 0.000000000000000e+00 0.000000000000000e+00
1.000000000000000e+00 5.000000000000000e-01 0.000000000000000e+00
5.000000000000000e-01 5.000000000000001e-01 0.000000000000000e+00
        </DataArray>
      </Points>

      <Cells>
        <DataArray type="Int32" Name="connectivity" format="ascii">
0 1 2 3 4 5 6 7 
        </DataArray>
        <DataArray type="Int32" Name="offsets" format="ascii">
4 8 
        </DataArray>
        <DataArray type="UInt8" Name="types" format="ascii">
9 9 
        </DataArray>
      </Cells>

  <PointData>
        <DataArray type="Float64" Name="displacement" NumberOfComponents="2" format="ascii">
4.003310352357667e-02 2.777038525389931e-18
8.342338999698062e-02 3.866041373483356e-17
8.400438309404042e-02 -1.183489904589063e-02
4.239352250637324e-02 -1.111080175029160e-02
4.239352250637329e-02 1.111080175029163e-02
8.400438309404049e-02 1.183489904589070e-02
8.342338999698062e-02 3.866041373483356e-17
4.003310352357667e-02 2.777038525389931e-18
        </DataArray>
        <DataArray type="Float64" Name="nodal_GL_strains_xyz" NumberOfComponents="6" format="ascii">
8.688663764050658e-02 -2.198567920841346e-02 0.000000000000000e+00 -8.023096076392733e-18 0.000000000000000e+00 0.000000000000000e+00
9.054477664283733e-02 -2.339022353942957e-02 0.000000000000000e+00 -1.295621596120178e-17 0.000000000000000e+00 0.000000000000000e+00
8.668446702235516e-02 -2.339022353942959e-02 0.000000000000000e+00 -7.761371622529763e-05 0.000000000000000e+00 0.000000000000000e+00
8.763491310136536e-02 -2.198567920841341e-02 0.000000000000000e+00 -3.227249782621855e-03 0.000000000000000e+00 0.000000000000000e+00
8.763491310136537e-02 -2.198567920841351e-02 0.000000000000000e+00 3.227249782621832e-03 0.000000000000000e+00 0.000000000000000e+00
8.668446702235520e-02 -2.339022353942956e-02 0.000000000000000e+00 7.761371622524082e-05 0.000000000000000e+00 0.000000000000000e+00
9.054477664283733e-02 -2.339022353942957e-02 0.000000000000000e+00 -1.295621596120178e-17 0.000000000000000e+00 0.000000000000000e+00
8.688663764050658e-02 -2.198567920841346e-02 0.000000000000000e+00 -8.023096076392733e-18 0.000000000000000e+00 0.000000000000000e+00
        </DataArray>
        <DataArray type="Float64" Name="nodal_cauchy_stresses_xyz" NumberOfComponents="6" format="ascii">
1.002412776034685e+00 -3.435464831943998e-03 1.702604832491476e-01 -3.122502256758253e-17 0.000000000000000e+00 0.000000000000000e+00
1.047510419187158e+00 -7.527784835800096e-03 1.758123479048793e-01 -4.510281037539698e-17 0.000000000000000e+00 0.000000000000000e+00
9.964761880485165e-01 -1.721388960144402e-02 1.662504657766072e-01 -2.018800953394669e-03 0.000000000000000e+00 0.000000000000000e+00
1.011514293179578e+00 7.998014845846980e-05 1.721462930179370e-01 -3.785922220339154e-02 0.000000000000000e+00 0.000000000000000e+00
1.011514293179579e+00 7.998014845752677e-05 1.721462930179368e-01 3.785922220339139e-02 0.000000000000000e+00 0.000000000000000e+00
9.964761880485169e-01 -1.721388960144363e-02 1.662504657766073e-01 2.018800953394261e-03 0.000000000000000e+00 0.000000000000000e+00
1.047510419187158e+00 -7.527784835800096e-03 1.758123479048793e-01 -4.510281037539698e-17 0.000000000000000e+00 0.000000000000000e+00
1.002412776034685e+00 -3.435464831943998e-03 1.702604832491476e-01 -3.122502256758253e-17 0.000000000000000e+00 0.000000000000000e+00
        </DataArray>
  </PointData>
  <CellData>
        <DataArray type="Float64" Name="element_GL_strains_xyz" NumberOfComponents="6" format="ascii">
8.861462183259627e-02 -2.267750713892713e-02 0.000000000000000e+00 1.241976552458291e-03 0.000000000000000e+00 0.000000000000000e+00
8.861462183259627e-02 -2.267750713892719e-02 0.000000000000000e+00 -1.241976552458313e-03 0.000000000000000e+00 0.000000000000000e+00
        </DataArray>
        <DataArray type="Float64" Name="element_cauchy_stresses_xyz" NumberOfComponents="6" format="ascii">
1.023518166828890e+00 -5.254253657735366e-03 1.727706764821859e-01 9.660592011673675e-03 0.000000000000000e+00 0.000000000000000e+00
1.023518166828890e+00 -5.254253657735923e-03 1.727706764821858e-01 -9.660592011673758e-03 0.000000000000000e+00 0.000000000000000e+00
        </DataArray>
      </CellData>

    </Piece>
  </UnstructuredGrid>
</VTKFile>
