<?xml version="1.0" ?> 
<!-- 
# vtk DataFile Version 3.0
-->
<VTKFile type="UnstructuredGrid" version="0.1" compressor="vtkZLibDataCompressor" byte_order="LittleEndian">
  <UnstructuredGrid>
    <FieldData>
      <DataArray type="Float64" Name="TIME" NumberOfTuples="1" format="ascii">
2.000000000000000e+00 
      </DataArray>
    </FieldData>

    <Piece NumberOfPoints="8" NumberOfCells="2" >
      <Points>
        <DataArray type="Float64" NumberOfComponents="3" format="ascii">
0.000000000000000e+00 5.000000000000000e-01 0.000000000000000e+00
5.000000000000000e-01 5.000000000000001e-01 0.000000000000000e+00
5.000000000000000e-01 1.000000000000000e+00 0.000000000000000e+00
0.000000000000000e+00 1.000000000000000e+00 0.000000000000000e+00
0.000000000000000e+00 0.000000000000000e+00 0.000000000000000e+00
5.000000000000000e-01 0.000000000000000e+00 0.000000000000000e+00
5.000000000000000e-01 5.000000000000001e-01 0.000000000000000e+00
0.000000000000000e+00 5.000000000000000e-01 0.000000000000000e+00
        </DataArray>
      </Points>

      <Cells>
        <DataArray type="Int32" Name="connectivity" format="ascii">
0 1 2 3 4 5 6 7 
        </DataArray>
        <DataArray type="Int32" Name="offsets" format="ascii">
4 8 
        </DataArray>
        <DataArray type="UInt8" Name="types" format="ascii">
9 9 
        </DataArray>
      </Cells>

  <PointData>
        <DataArray type="Float64" Name="displacement" NumberOfComponents="2" format="ascii">
0.000000000000000e+00 0.000000000000000e+00
4.003310352357667e-02 2.777038525389931e-18
4.239352250637324e-02 -1.111080175029160e-02
0.000000000000000e+00 0.000000000000000e+00
0.000000000000000e+00 0.000000000000000e+00
4.239352250637329e-02 1.111080175029163e-02
4.003310352357667e-02 2.777038525389931e-18
0.000000000000000e+00 0.000000000000000e+00
        </DataArray>
        <DataArray type="Float64" Name="nodal_GL_strains_xyz" NumberOfComponents="6" format="ascii">
8.322849863817586e-02 -4.300716443622729e-05 0.000000000000000e+00 4.119968255444917e-18 0.000000000000000e+00 0.000000000000000e+00
8.688663764050658e-02 -2.198567920841346e-02 0.000000000000000e+00 -8.023096076392733e-18 0.000000000000000e+00 0.000000000000000e+00
8.763491310136536e-02 -2.198567920841341e-02 0.000000000000000e+00 -3.227249782621855e-03 0.000000000000000e+00 0.000000000000000e+00
8.858535918037554e-02 -4.300716443616202e-05 0.000000000000000e+00 -1.111080175029160e-02 0.000000000000000e+00 0.000000000000000e+00
8.858535918037552e-02 -4.300716443629126e-05 0.000000000000000e+00 1.111080175029163e-02 0.000000000000000e+00 0.000000000000000e+00
8.763491310136537e-02 -2.198567920841351e-02 0.000000000000000e+00 3.227249782621832e-03 0.000000000000000e+00 0.000000000000000e+00
8.688663764050658e-02 -2.198567920841346e-02 0.000000000000000e+00 -8.023096076392733e-18 0.000000000000000e+00 0.000000000000000e+00
8.322849863817586e-02 -4.300716443622729e-05 0.000000000000000e+00 4.119968255444917e-18 0.000000000000000e+00 0.000000000000000e+00
        </DataArray>
        <DataArray type="Float64" Name="nodal_cauchy_stresses_xyz" NumberOfComponents="6" format="ascii">
9.987587240198494e-01 2.120750983516740e-01 2.141465847641716e-01 4.163336342344337e-17 0.000000000000000e+00 0.000000000000000e+00
1.002412776034685e+00 -3.435464831943998e-03 1.702604832491476e-01 -3.122502256758253e-17 0.000000000000000e+00 0.000000000000000e+00
1.011514293179578e+00 7.998014845846980e-05 1.721462930179370e-01 -3.785922220339154e-02 0.000000000000000e+00 0.000000000000000e+00
1.067685812271727e+00 2.291025861702791e-01 2.269298477786016e-01 -1.140648380981316e-01 0.000000000000000e+00 0.000000000000000e+00
1.067685812271727e+00 2.291025861702778e-01 2.269298477786013e-01 1.140648380981319e-01 0.000000000000000e+00 0.000000000000000e+00
1.011514293179579e+00 7.998014845752677e-05 1.721462930179368e-01 3.785922220339139e-02 0.000000000000000e+00 0.000000000000000e+00
1.002412776034685e+00 -3.435464831943998e-03 1.702604832491476e-01 -3.122502256758253e-17 0.000000000000000e+00 0.000000000000000e+00
9.987587240198494e-01 2.120750983516740e-01 2.141465847641716e-01 4.163336342344337e-17 0.000000000000000e+00 0.000000000000000e+00
        </DataArray>
  </PointData>
  <CellData>
        <DataArray type="Float64" Name="element_GL_strains_xyz" NumberOfComponents="6" format="ascii">
8.590692890927570e-02 -1.102478742141916e-02 0.000000000000000e+00 -4.216185739595889e-03 0.000000000000000e+00 0.000000000000000e+00
8.590692890927570e-02 -1.102478742141924e-02 0.000000000000000e+00 4.216185739595878e-03 0.000000000000000e+00 0.000000000000000e+00
        </DataArray>
        <DataArray type="Float64" Name="element_cauchy_stresses_xyz" NumberOfComponents="6" format="ascii">
1.011053153660054e+00 1.076855138371702e-01 1.942175232074214e-01 -4.545890285293281e-02 0.000000000000000e+00 0.000000000000000e+00
1.011053153660054e+00 1.076855138371694e-01 1.942175232074212e-01 4.545890285293276e-02 0.000000000000000e+00 0.000000000000000e+00
        </DataArray>
      </CellData>

    </Piece>
  </UnstructuredGrid>
</VTKFile>
