<?xml version="1.0" ?> 
<!-- 
# vtk DataFile Version 3.0
-->
<VTKFile type="UnstructuredGrid" version="0.1" compressor="vtkZLibDataCompressor" byte_order="LittleEndian">
  <UnstructuredGrid>
    <FieldData>
      <DataArray type="Float64" Name="TIME" NumberOfTuples="1" format="ascii">
3.000000000000000e+00 
      </DataArray>
    </FieldData>

    <Piece NumberOfPoints="8" NumberOfCells="2" >
      <Points>
        <DataArray type="Float64" NumberOfComponents="3" format="ascii">
5.000000000000000e-01 5.000000000000001e-01 0.000000000000000e+00
1.000000000000000e+00 5.000000000000000e-01 0.000000000000000e+00
1.000000000000000e+00 1.000000000000000e+00 0.000000000000000e+00
5.000000000000000e-01 1.000000000000000e+00 0.000000000000000e+00
5.000000000000000e-01 0.000000000000000e+00 0.000000000000000e+00
1.000000000000000e+00 0.000000000000000e+00 0.000000000000000e+00
1.000000000000000e+00 5.000000000000000e-01 0.000000000000000e+00
5.000000000000000e-01 5.000000000000001e-01 0.000000000000000e+00
        </DataArray>
      </Points>

      <Cells>
        <DataArray type="Int32" Name="connectivity" format="ascii">
0 1 2 3 4 5 6 7 
        </DataArray>
        <DataArray type="Int32" Name="offsets" format="ascii">
4 8 
        </DataArray>
        <DataArray type="UInt8" Name="types" format="ascii">
9 9 
        </DataArray>
      </Cells>

  <PointData>
        <DataArray type="Float64" Name="displacement" NumberOfComponents="2" format="ascii">
5.719532275973483e-02 -1.925923247757572e-18
1.189856766041448e-01 1.860887667778301e-17
1.198895602048943e-01 -1.724542462431078e-02
6.046170633938809e-02 -1.599594518916765e-02
6.046170633938808e-02 1.599594518916765e-02
1.198895602048943e-01 1.724542462431079e-02
1.189856766041448e-01 1.860887667778301e-17
5.719532275973483e-02 -1.925923247757572e-18
        </DataArray>
        <DataArray type="Float64" Name="nodal_GL_strains_xyz" NumberOfComponents="6" format="ascii">
1.260294156897535e-01 -3.150442501816562e-02 0.000000000000000e+00 1.431146867680866e-17 0.000000000000000e+00 0.000000000000000e+00
1.312144224769183e-01 -3.389678676488506e-02 0.000000000000000e+00 -1.160096324559490e-17 0.000000000000000e+00 0.000000000000000e+00
1.259197888905136e-01 -3.389678676488513e-02 0.000000000000000e+00 -1.950685024833974e-04 0.000000000000000e+00 0.000000000000000e+00
1.272886657265793e-01 -3.150442501816561e-02 0.000000000000000e+00 -4.688866574622620e-03 0.000000000000000e+00 0.000000000000000e+00
1.272886657265794e-01 -3.150442501816563e-02 0.000000000000000e+00 4.688866574622632e-03 0.000000000000000e+00 0.000000000000000e+00
1.259197888905136e-01 -3.389678676488499e-02 0.000000000000000e+00 1.950685024833547e-04 0.000000000000000e+00 0.000000000000000e+00
1.312144224769183e-01 -3.389678676488506e-02 0.000000000000000e+00 -1.160096324559490e-17 0.000000000000000e+00 0.000000000000000e+00
1.260294156897535e-01 -3.150442501816562e-02 0.000000000000000e+00 1.431146867680866e-17 0.000000000000000e+00 0.000000000000000e+00
        </DataArray>
        <DataArray type="Float64" Name="nodal_cauchy_stresses_xyz" NumberOfComponents="6" format="ascii">
1.518274135209901e+00 -1.575596213608355e-03 2.425641193483346e-01 1.474514954580286e-16 0.000000000000000e+00 0.000000000000000e+00
1.587005336519093e+00 -1.044748239165084e-02 2.491999232411619e-01 -5.290906601729262e-17 0.000000000000000e+00 0.000000000000000e+00
1.512114610518176e+00 -2.316818270850389e-02 2.366368065230618e-01 -5.090791559136243e-03 0.000000000000000e+00 0.000000000000000e+00
1.534321569267459e+00 4.897551334591117e-03 2.456134740195493e-01 -6.251872294580693e-02 0.000000000000000e+00 0.000000000000000e+00
1.534321569267460e+00 4.897551334590924e-03 2.456134740195493e-01 6.251872294580707e-02 0.000000000000000e+00 0.000000000000000e+00
1.512114610518176e+00 -2.316818270850248e-02 2.366368065230622e-01 5.090791559135920e-03 0.000000000000000e+00 0.000000000000000e+00
1.587005336519093e+00 -1.044748239165084e-02 2.491999232411619e-01 -5.290906601729262e-17 0.000000000000000e+00 0.000000000000000e+00
1.518274135209901e+00 -1.575596213608355e-03 2.425641193483346e-01 1.474514954580286e-16 0.000000000000000e+00 0.000000000000000e+00
        </DataArray>
  </PointData>
  <CellData>
        <DataArray type="Float64" Name="element_GL_strains_xyz" NumberOfComponents="6" format="ascii">
1.285671056837160e-01 -3.267898948159412e-02 0.000000000000000e+00 1.733917233258698e-03 0.000000000000000e+00 0.000000000000000e+00
1.285671056837160e-01 -3.267898948159406e-02 0.000000000000000e+00 -1.733917233258699e-03 0.000000000000000e+00 0.000000000000000e+00
        </DataArray>
        <DataArray type="Float64" Name="element_cauchy_stresses_xyz" NumberOfComponents="6" format="ascii">
1.551639518088082e+00 -5.172053078828361e-03 2.457209002928376e-01 1.272017280624088e-02 0.000000000000000e+00 0.000000000000000e+00
1.551639518088082e+00 -5.172053078827844e-03 2.457209002928377e-01 -1.272017280624083e-02 0.000000000000000e+00 0.000000000000000e+00
        </DataArray>
      </CellData>

    </Piece>
  </UnstructuredGrid>
</VTKFile>
