<?xml version="1.0" ?> 
<!-- 
# vtk DataFile Version 3.0
-->
<VTKFile type="UnstructuredGrid" version="0.1" compressor="vtkZLibDataCompressor" byte_order="LittleEndian">
  <UnstructuredGrid>
    <FieldData>
      <DataArray type="Float64" Name="TIME" NumberOfTuples="1" format="ascii">
100
      </DataArray>
    </FieldData>

    <Piece NumberOfPoints="256" NumberOfCells="32" >
      <Points>
        <DataArray type="Float64" NumberOfComponents="3" format="ascii">
0.000000000000000e+00 2.200000000000000e+01 0.000000000000000e+00
6.000000000000000e+00 2.575000000000000e+01 0.000000000000000e+00
6.000000000000000e+00 3.081250000000000e+01 0.000000000000000e+00
0.000000000000000e+00 2.750000000000000e+01 0.000000000000000e+00
0.000000000000000e+00 2.200000000000000e+01 1.000000000000000e+00
6.000000000000000e+00 2.575000000000000e+01 1.000000000000000e+00
6.000000000000000e+00 3.081250000000000e+01 1.000000000000000e+00
0.000000000000000e+00 2.750000000000000e+01 1.000000000000000e+00
6.000000000000000e+00 2.575000000000000e+01 0.000000000000000e+00
1.200000000000000e+01 2.950000000000000e+01 0.000000000000000e+00
1.200000000000000e+01 3.412500000000000e+01 0.000000000000000e+00
6.000000000000000e+00 3.081250000000000e+01 0.000000000000000e+00
6.000000000000000e+00 2.575000000000000e+01 1.000000000000000e+00
1.200000000000000e+01 2.950000000000000e+01 1.000000000000000e+00
1.200000000000000e+01 3.412500000000000e+01 1.000000000000000e+00
6.000000000000000e+00 3.081250000000000e+01 1.000000000000000e+00
1.200000000000000e+01 2.950000000000000e+01 0.000000000000000e+00
1.800000000000000e+01 3.325000000000000e+01 0.000000000000000e+00
1.800000000000000e+01 3.743750000000000e+01 0.000000000000000e+00
1.200000000000000e+01 3.412500000000000e+01 0.000000000000000e+00
1.200000000000000e+01 2.950000000000000e+01 1.000000000000000e+00
1.800000000000000e+01 3.325000000000000e+01 1.000000000000000e+00
1.800000000000000e+01 3.743750000000000e+01 1.000000000000000e+00
1.200000000000000e+01 3.412500000000000e+01 1.000000000000000e+00
1.800000000000000e+01 3.325000000000000e+01 0.000000000000000e+00
2.400000000000000e+01 3.700000000000000e+01 0.000000000000000e+00
2.400000000000000e+01 4.075000000000000e+01 0.000000000000000e+00
1.800000000000000e+01 3.743750000000000e+01 0.000000000000000e+00
1.800000000000000e+01 3.325000000000000e+01 1.000000000000000e+00
2.400000000000000e+01 3.700000000000000e+01 1.000000000000000e+00
2.400000000000000e+01 4.075000000000000e+01 1.000000000000000e+00
1.800000000000000e+01 3.743750000000000e+01 1.000000000000000e+00
2.400000000000000e+01 3.700000000000000e+01 0.000000000000000e+00
3.000000000000000e+01 4.075000000000000e+01 0.000000000000000e+00
3.000000000000000e+01 4.406250000000000e+01 0.000000000000000e+00
2.400000000000000e+01 4.075000000000000e+01 0.000000000000000e+00
2.400000000000000e+01 3.700000000000000e+01 1.000000000000000e+00
3.000000000000000e+01 4.075000000000000e+01 1.000000000000000e+00
3.000000000000000e+01 4.406250000000000e+01 1.000000000000000e+00
2.400000000000000e+01 4.075000000000000e+01 1.000000000000000e+00
3.000000000000000e+01 4.075000000000000e+01 0.000000000000000e+00
3.600000000000000e+01 4.450000000000000e+01 0.000000000000000e+00
3.600000000000000e+01 4.737500000000000e+01 0.000000000000000e+00
3.000000000000000e+01 4.406250000000000e+01 0.000000000000000e+00
3.000000000000000e+01 4.075000000000000e+01 1.000000000000000e+00
3.600000000000000e+01 4.450000000000000e+01 1.000000000000000e+00
3.600000000000000e+01 4.737500000000000e+01 1.000000000000000e+00
3.000000000000000e+01 4.406250000000000e+01 1.000000000000000e+00
3.600000000000000e+01 4.450000000000000e+01 0.000000000000000e+00
4.200000000000000e+01 4.825000000000000e+01 0.000000000000000e+00
4.200000000000000e+01 5.068750000000000e+01 0.000000000000000e+00
3.600000000000000e+01 4.737500000000000e+01 0.000000000000000e+00
3.600000000000000e+01 4.450000000000000e+01 1.000000000000000e+00
4.200000000000000e+01 4.825000000000000e+01 1.000000000000000e+00
4.200000000000000e+01 5.068750000000000e+01 1.000000000000000e+00
3.600000000000000e+01 4.737500000000000e+01 1.000000000000000e+00
4.200000000000000e+01 4.825000000000000e+01 0.000000000000000e+00
4.800000000000000e+01 5.200000000000000e+01 0.000000000000000e+00
4.800000000000000e+01 5.400000000000000e+01 0.000000000000000e+00
4.200000000000000e+01 5.068750000000000e+01 0.000000000000000e+00
4.200000000000000e+01 4.825000000000000e+01 1.000000000000000e+00
4.800000000000000e+01 5.200000000000000e+01 1.000000000000000e+00
4.800000000000000e+01 5.400000000000000e+01 1.000000000000000e+00
4.200000000000000e+01 5.068750000000000e+01 1.000000000000000e+00
0.000000000000000e+00 2.750000000000000e+01 0.000000000000000e+00
6.000000000000000e+00 3.081250000000000e+01 0.000000000000000e+00
6.000000000000000e+00 3.587500000000000e+01 0.000000000000000e+00
0.000000000000000e+00 3.300000000000000e+01 0.000000000000000e+00
0.000000000000000e+00 2.750000000000000e+01 1.000000000000000e+00
6.000000000000000e+00 3.081250000000000e+01 1.000000000000000e+00
6.000000000000000e+00 3.587500000000000e+01 1.000000000000000e+00
0.000000000000000e+00 3.300000000000000e+01 1.000000000000000e+00
6.000000000000000e+00 3.081250000000000e+01 0.000000000000000e+00
1.200000000000000e+01 3.412500000000000e+01 0.000000000000000e+00
1.200000000000000e+01 3.875000000000000e+01 0.000000000000000e+00
6.000000000000000e+00 3.587500000000000e+01 0.000000000000000e+00
6.000000000000000e+00 3.081250000000000e+01 1.000000000000000e+00
1.200000000000000e+01 3.412500000000000e+01 1.000000000000000e+00
1.200000000000000e+01 3.875000000000000e+01 1.000000000000000e+00
6.000000000000000e+00 3.587500000000000e+01 1.000000000000000e+00
1.200000000000000e+01 3.412500000000000e+01 0.000000000000000e+00
1.800000000000000e+01 3.743750000000000e+01 0.000000000000000e+00
1.800000000000000e+01 4.162500000000000e+01 0.000000000000000e+00
1.200000000000000e+01 3.875000000000000e+01 0.000000000000000e+00
1.200000000000000e+01 3.412500000000000e+01 1.000000000000000e+00
1.800000000000000e+01 3.743750000000000e+01 1.000000000000000e+00
1.800000000000000e+01 4.162500000000000e+01 1.000000000000000e+00
1.200000000000000e+01 3.875000000000000e+01 1.000000000000000e+00
1.800000000000000e+01 3.743750000000000e+01 0.000000000000000e+00
2.400000000000000e+01 4.075000000000000e+01 0.000000000000000e+00
2.400000000000000e+01 4.450000000000000e+01 0.000000000000000e+00
1.800000000000000e+01 4.162500000000000e+01 0.000000000000000e+00
1.800000000000000e+01 3.743750000000000e+01 1.000000000000000e+00
2.400000000000000e+01 4.075000000000000e+01 1.000000000000000e+00
2.400000000000000e+01 4.450000000000000e+01 1.000000000000000e+00
1.800000000000000e+01 4.162500000000000e+01 1.000000000000000e+00
2.400000000000000e+01 4.075000000000000e+01 0.000000000000000e+00
3.000000000000000e+01 4.406250000000000e+01 0.000000000000000e+00
3.000000000000000e+01 4.737500000000000e+01 0.000000000000000e+00
2.400000000000000e+01 4.450000000000000e+01 0.000000000000000e+00
2.400000000000000e+01 4.075000000000000e+01 1.000000000000000e+00
3.000000000000000e+01 4.406250000000000e+01 1.000000000000000e+00
3.000000000000000e+01 4.737500000000000e+01 1.000000000000000e+00
2.400000000000000e+01 4.450000000000000e+01 1.000000000000000e+00
3.000000000000000e+01 4.406250000000000e+01 0.000000000000000e+00
3.600000000000000e+01 4.737500000000000e+01 0.000000000000000e+00
3.600000000000000e+01 5.025000000000000e+01 0.000000000000000e+00
3.000000000000000e+01 4.737500000000000e+01 0.000000000000000e+00
3.000000000000000e+01 4.406250000000000e+01 1.000000000000000e+00
3.600000000000000e+01 4.737500000000000e+01 1.000000000000000e+00
3.600000000000000e+01 5.025000000000000e+01 1.000000000000000e+00
3.000000000000000e+01 4.737500000000000e+01 1.000000000000000e+00
3.600000000000000e+01 4.737500000000000e+01 0.000000000000000e+00
4.200000000000000e+01 5.068750000000000e+01 0.000000000000000e+00
4.200000000000000e+01 5.312500000000000e+01 0.000000000000000e+00
3.600000000000000e+01 5.025000000000000e+01 0.000000000000000e+00
3.600000000000000e+01 4.737500000000000e+01 1.000000000000000e+00
4.200000000000000e+01 5.068750000000000e+01 1.000000000000000e+00
4.200000000000000e+01 5.312500000000000e+01 1.000000000000000e+00
3.600000000000000e+01 5.025000000000000e+01 1.000000000000000e+00
4.200000000000000e+01 5.068750000000000e+01 0.000000000000000e+00
4.800000000000000e+01 5.400000000000000e+01 0.000000000000000e+00
4.800000000000000e+01 5.600000000000000e+01 0.000000000000000e+00
4.200000000000000e+01 5.312500000000000e+01 0.000000000000000e+00
4.200000000000000e+01 5.068750000000000e+01 1.000000000000000e+00
4.800000000000000e+01 5.400000000000000e+01 1.000000000000000e+00
4.800000000000000e+01 5.600000000000000e+01 1.000000000000000e+00
4.200000000000000e+01 5.312500000000000e+01 1.000000000000000e+00
0.000000000000000e+00 3.300000000000000e+01 0.000000000000000e+00
6.000000000000000e+00 3.587500000000000e+01 0.000000000000000e+00
6.000000000000000e+00 4.093750000000000e+01 0.000000000000000e+00
0.000000000000000e+00 3.850000000000000e+01 0.000000000000000e+00
0.000000000000000e+00 3.300000000000000e+01 1.000000000000000e+00
6.000000000000000e+00 3.587500000000000e+01 1.000000000000000e+00
6.000000000000000e+00 4.093750000000000e+01 1.000000000000000e+00
0.000000000000000e+00 3.850000000000000e+01 1.000000000000000e+00
6.000000000000000e+00 3.587500000000000e+01 0.000000000000000e+00
1.200000000000000e+01 3.875000000000000e+01 0.000000000000000e+00
1.200000000000000e+01 4.337500000000000e+01 0.000000000000000e+00
6.000000000000000e+00 4.093750000000000e+01 0.000000000000000e+00
6.000000000000000e+00 3.587500000000000e+01 1.000000000000000e+00
1.200000000000000e+01 3.875000000000000e+01 1.000000000000000e+00
1.200000000000000e+01 4.337500000000000e+01 1.000000000000000e+00
6.000000000000000e+00 4.093750000000000e+01 1.000000000000000e+00
1.200000000000000e+01 3.875000000000000e+01 0.000000000000000e+00
1.800000000000000e+01 4.162500000000000e+01 0.000000000000000e+00
1.800000000000000e+01 4.581250000000000e+01 0.000000000000000e+00
1.200000000000000e+01 4.337500000000000e+01 0.000000000000000e+00
1.200000000000000e+01 3.875000000000000e+01 1.000000000000000e+00
1.800000000000000e+01 4.162500000000000e+01 1.000000000000000e+00
1.800000000000000e+01 4.581250000000000e+01 1.000000000000000e+00
1.200000000000000e+01 4.337500000000000e+01 1.000000000000000e+00
1.800000000000000e+01 4.162500000000000e+01 0.000000000000000e+00
2.400000000000000e+01 4.450000000000000e+01 0.000000000000000e+00
2.400000000000000e+01 4.825000000000000e+01 0.000000000000000e+00
1.800000000000000e+01 4.581250000000000e+01 0.000000000000000e+00
1.800000000000000e+01 4.162500000000000e+01 1.000000000000000e+00
2.400000000000000e+01 4.450000000000000e+01 1.000000000000000e+00
2.400000000000000e+01 4.825000000000000e+01 1.000000000000000e+00
1.800000000000000e+01 4.581250000000000e+01 1.000000000000000e+00
2.400000000000000e+01 4.450000000000000e+01 0.000000000000000e+00
3.000000000000000e+01 4.737500000000000e+01 0.000000000000000e+00
3.000000000000000e+01 5.068750000000000e+01 0.000000000000000e+00
2.400000000000000e+01 4.825000000000000e+01 0.000000000000000e+00
2.400000000000000e+01 4.450000000000000e+01 1.000000000000000e+00
3.000000000000000e+01 4.737500000000000e+01 1.000000000000000e+00
3.000000000000000e+01 5.068750000000000e+01 1.000000000000000e+00
2.400000000000000e+01 4.825000000000000e+01 1.000000000000000e+00
3.000000000000000e+01 4.737500000000000e+01 0.000000000000000e+00
3.600000000000000e+01 5.025000000000000e+01 0.000000000000000e+00
3.600000000000000e+01 5.312500000000000e+01 0.000000000000000e+00
3.000000000000000e+01 5.068750000000000e+01 0.000000000000000e+00
3.000000000000000e+01 4.737500000000000e+01 1.000000000000000e+00
3.600000000000000e+01 5.025000000000000e+01 1.000000000000000e+00
3.600000000000000e+01 5.312500000000000e+01 1.000000000000000e+00
3.000000000000000e+01 5.068750000000000e+01 1.000000000000000e+00
3.600000000000000e+01 5.025000000000000e+01 0.000000000000000e+00
4.200000000000000e+01 5.312500000000000e+01 0.000000000000000e+00
4.200000000000000e+01 5.556250000000000e+01 0.000000000000000e+00
3.600000000000000e+01 5.312500000000000e+01 0.000000000000000e+00
3.600000000000000e+01 5.025000000000000e+01 1.000000000000000e+00
4.200000000000000e+01 5.312500000000000e+01 1.000000000000000e+00
4.200000000000000e+01 5.556250000000000e+01 1.000000000000000e+00
3.600000000000000e+01 5.312500000000000e+01 1.000000000000000e+00
4.200000000000000e+01 5.312500000000000e+01 0.000000000000000e+00
4.800000000000000e+01 5.600000000000000e+01 0.000000000000000e+00
4.800000000000000e+01 5.800000000000000e+01 0.000000000000000e+00
4.200000000000000e+01 5.556250000000000e+01 0.000000000000000e+00
4.200000000000000e+01 5.312500000000000e+01 1.000000000000000e+00
4.800000000000000e+01 5.600000000000000e+01 1.000000000000000e+00
4.800000000000000e+01 5.800000000000000e+01 1.000000000000000e+00
4.200000000000000e+01 5.556250000000000e+01 1.000000000000000e+00
0.000000000000000e+00 3.850000000000000e+01 0.000000000000000e+00
6.000000000000000e+00 4.093750000000000e+01 0.000000000000000e+00
6.000000000000000e+00 4.600000000000000e+01 0.000000000000000e+00
0.000000000000000e+00 4.400000000000000e+01 0.000000000000000e+00
0.000000000000000e+00 3.850000000000000e+01 1.000000000000000e+00
6.000000000000000e+00 4.093750000000000e+01 1.000000000000000e+00
6.000000000000000e+00 4.600000000000000e+01 1.000000000000000e+00
0.000000000000000e+00 4.400000000000000e+01 1.000000000000000e+00
6.000000000000000e+00 4.093750000000000e+01 0.000000000000000e+00
1.200000000000000e+01 4.337500000000000e+01 0.000000000000000e+00
1.200000000000000e+01 4.800000000000000e+01 0.000000000000000e+00
6.000000000000000e+00 4.600000000000000e+01 0.000000000000000e+00
6.000000000000000e+00 4.093750000000000e+01 1.000000000000000e+00
1.200000000000000e+01 4.337500000000000e+01 1.000000000000000e+00
1.200000000000000e+01 4.800000000000000e+01 1.000000000000000e+00
6.000000000000000e+00 4.600000000000000e+01 1.000000000000000e+00
1.200000000000000e+01 4.337500000000000e+01 0.000000000000000e+00
1.800000000000000e+01 4.581250000000000e+01 0.000000000000000e+00
1.800000000000000e+01 5.000000000000000e+01 0.000000000000000e+00
1.200000000000000e+01 4.800000000000000e+01 0.000000000000000e+00
1.200000000000000e+01 4.337500000000000e+01 1.000000000000000e+00
1.800000000000000e+01 4.581250000000000e+01 1.000000000000000e+00
1.800000000000000e+01 5.000000000000000e+01 1.000000000000000e+00
1.200000000000000e+01 4.800000000000000e+01 1.000000000000000e+00
1.800000000000000e+01 4.581250000000000e+01 0.000000000000000e+00
2.400000000000000e+01 4.825000000000000e+01 0.000000000000000e+00
2.400000000000000e+01 5.200000000000000e+01 0.000000000000000e+00
1.800000000000000e+01 5.000000000000000e+01 0.000000000000000e+00
1.800000000000000e+01 4.581250000000000e+01 1.000000000000000e+00
2.400000000000000e+01 4.825000000000000e+01 1.000000000000000e+00
2.400000000000000e+01 5.200000000000000e+01 1.000000000000000e+00
1.800000000000000e+01 5.000000000000000e+01 1.000000000000000e+00
2.400000000000000e+01 4.825000000000000e+01 0.000000000000000e+00
3.000000000000000e+01 5.068750000000000e+01 0.000000000000000e+00
3.000000000000000e+01 5.400000000000000e+01 0.000000000000000e+00
2.400000000000000e+01 5.200000000000000e+01 0.000000000000000e+00
2.400000000000000e+01 4.825000000000000e+01 1.000000000000000e+00
3.000000000000000e+01 5.068750000000000e+01 1.000000000000000e+00
3.000000000000000e+01 5.400000000000000e+01 1.000000000000000e+00
2.400000000000000e+01 5.200000000000000e+01 1.000000000000000e+00
3.000000000000000e+01 5.068750000000000e+01 0.000000000000000e+00
3.600000000000000e+01 5.312500000000000e+01 0.000000000000000e+00
3.600000000000000e+01 5.600000000000000e+01 0.000000000000000e+00
3.000000000000000e+01 5.400000000000000e+01 0.000000000000000e+00
3.000000000000000e+01 5.068750000000000e+01 1.000000000000000e+00
3.600000000000000e+01 5.312500000000000e+01 1.000000000000000e+00
3.600000000000000e+01 5.600000000000000e+01 1.000000000000000e+00
3.000000000000000e+01 5.400000000000000e+01 1.000000000000000e+00
3.600000000000000e+01 5.312500000000000e+01 0.000000000000000e+00
4.200000000000000e+01 5.556250000000000e+01 0.000000000000000e+00
4.200000000000000e+01 5.800000000000000e+01 0.000000000000000e+00
3.600000000000000e+01 5.600000000000000e+01 0.000000000000000e+00
3.600000000000000e+01 5.312500000000000e+01 1.000000000000000e+00
4.200000000000000e+01 5.556250000000000e+01 1.000000000000000e+00
4.200000000000000e+01 5.800000000000000e+01 1.000000000000000e+00
3.600000000000000e+01 5.600000000000000e+01 1.000000000000000e+00
4.200000000000000e+01 5.556250000000000e+01 0.000000000000000e+00
4.800000000000000e+01 5.800000000000000e+01 0.000000000000000e+00
4.800000000000000e+01 6.000000000000000e+01 0.000000000000000e+00
4.200000000000000e+01 5.800000000000000e+01 0.000000000000000e+00
4.200000000000000e+01 5.556250000000000e+01 1.000000000000000e+00
4.800000000000000e+01 5.800000000000000e+01 1.000000000000000e+00
4.800000000000000e+01 6.000000000000000e+01 1.000000000000000e+00
4.200000000000000e+01 5.800000000000000e+01 1.000000000000000e+00
        </DataArray>
      </Points>

      <Cells>
        <DataArray type="Int32" Name="connectivity" format="ascii">
0 1 2 3 4 5 6 7 8 9 10 11 12 13 14 15 16 17 18 19 20 21 22 23 24 25 26 27 28 29 30 31 32 33 34 35 36 37 38 39 40 41 42 43 44 45 46 47 48 49 50 51 52 53 54 55 56 57 58 59 60 61 62 63 64 65 66 67 68 69 70 71 72 73 74 75 76 77 78 79 80 81 82 83 84 85 86 87 88 89 90 91 92 93 94 95 96 97 98 99 100 101 102 103 104 105 106 107 108 109 110 111 112 113 114 115 116 117 118 119 120 121 122 123 124 125 126 127 128 129 130 131 132 133 134 135 136 137 138 139 140 141 142 143 144 145 146 147 148 149 150 151 152 153 154 155 156 157 158 159 160 161 162 163 164 165 166 167 168 169 170 171 172 173 174 175 176 177 178 179 180 181 182 183 184 185 186 187 188 189 190 191 192 193 194 195 196 197 198 199 200 201 202 203 204 205 206 207 208 209 210 211 212 213 214 215 216 217 218 219 220 221 222 223 224 225 226 227 228 229 230 231 232 233 234 235 236 237 238 239 240 241 242 243 244 245 246 247 248 249 250 251 252 253 254 255 
        </DataArray>
        <DataArray type="Int32" Name="offsets" format="ascii">
8 16 24 32 40 48 56 64 72 80 88 96 104 112 120 128 136 144 152 160 168 176 184 192 200 208 216 224 232 240 248 256 
        </DataArray>
        <DataArray type="UInt8" Name="types" format="ascii">
12 12 12 12 12 12 12 12 12 12 12 12 12 12 12 12 12 12 12 12 12 12 12 12 12 12 12 12 12 12 12 12 
        </DataArray>
      </Cells>

  <PointData>
        <DataArray type="Float64" Name="displacement" NumberOfComponents="3" format="ascii">
0.000000000000000e+00 0.000000000000000e+00 0.000000000000000e+00
4.425939563144780e-02 1.477923137393793e-01 0.000000000000000e+00
3.295694568690629e-02 7.357198945935521e-02 0.000000000000000e+00
0.000000000000000e+00 0.000000000000000e+00 0.000000000000000e+00
0.000000000000000e+00 0.000000000000000e+00 0.000000000000000e+00
4.425939563144102e-02 1.477923137393683e-01 0.000000000000000e+00
3.295694568685921e-02 7.357198945944489e-02 0.000000000000000e+00
0.000000000000000e+00 0.000000000000000e+00 0.000000000000000e+00
4.425939563144780e-02 1.477923137393793e-01 0.000000000000000e+00
1.160006675910433e-01 4.286289915230264e-01 0.000000000000000e+00
1.831122127850492e-03 3.903418685256078e-01 0.000000000000000e+00
3.295694568690629e-02 7.357198945935521e-02 0.000000000000000e+00
4.425939563144102e-02 1.477923137393683e-01 0.000000000000000e+00
1.160006675910916e-01 4.286289915230164e-01 0.000000000000000e+00
1.831122127861989e-03 3.903418685256437e-01 0.000000000000000e+00
3.295694568685921e-02 7.357198945944489e-02 0.000000000000000e+00
1.160006675910433e-01 4.286289915230264e-01 0.000000000000000e+00
3.213890631318433e-02 9.319779299573087e-01 0.000000000000000e+00
-1.970277503028897e-01 9.449882721487318e-01 0.000000000000000e+00
1.831122127850492e-03 3.903418685256078e-01 0.000000000000000e+00
1.160006675910916e-01 4.286289915230164e-01 0.000000000000000e+00
3.213890631323040e-02 9.319779299573180e-01 0.000000000000000e+00
-1.970277503028624e-01 9.449882721485714e-01 0.000000000000000e+00
1.831122127861989e-03 3.903418685256437e-01 0.000000000000000e+00
3.213890631318433e-02 9.319779299573087e-01 0.000000000000000e+00
-2.470779260594990e-01 1.647336393760159e+00 0.000000000000000e+00
-6.215384174997171e-01 1.674213149247886e+00 0.000000000000000e+00
-1.970277503028897e-01 9.449882721487318e-01 0.000000000000000e+00
3.213890631323040e-02 9.319779299573180e-01 0.000000000000000e+00
-2.470779260597519e-01 1.647336393760310e+00 0.000000000000000e+00
-6.215384174994407e-01 1.674213149247713e+00 0.000000000000000e+00
-1.970277503028624e-01 9.449882721485714e-01 0.000000000000000e+00
-2.470779260594990e-01 1.647336393760159e+00 0.000000000000000e+00
-7.527444986469208e-01 2.568055354403870e+00 0.000000000000000e+00
-1.184265251412243e+00 2.576358049582572e+00 0.000000000000000e+00
-6.215384174997171e-01 1.674213149247886e+00 0.000000000000000e+00
-2.470779260597519e-01 1.647336393760310e+00 0.000000000000000e+00
-7.527444986467137e-01 2.568055354403743e+00 0.000000000000000e+00
-1.184265251412555e+00 2.576358049582699e+00 0.000000000000000e+00
-6.215384174994407e-01 1.674213149247713e+00 0.000000000000000e+00
-7.527444986469208e-01 2.568055354403870e+00 0.000000000000000e+00
-1.436591042076008e+00 3.708711607178581e+00 0.000000000000000e+00
-1.911342784209047e+00 3.724523048901612e+00 0.000000000000000e+00
-1.184265251412243e+00 2.576358049582572e+00 0.000000000000000e+00
-7.527444986467137e-01 2.568055354403743e+00 0.000000000000000e+00
-1.436591042076133e+00 3.708711607178690e+00 0.000000000000000e+00
-1.911342784208747e+00 3.724523048901438e+00 0.000000000000000e+00
-1.184265251412555e+00 2.576358049582699e+00 0.000000000000000e+00
-1.436591042076008e+00 3.708711607178581e+00 0.000000000000000e+00
-2.309424014743727e+00 5.100202818311299e+00 0.000000000000000e+00
-2.763999305030478e+00 5.088562807156436e+00 0.000000000000000e+00
-1.911342784209047e+00 3.724523048901612e+00 0.000000000000000e+00
-1.436591042076133e+00 3.708711607178690e+00 0.000000000000000e+00
-2.309424014743741e+00 5.100202818311264e+00 0.000000000000000e+00
-2.763999305030636e+00 5.088562807156454e+00 0.000000000000000e+00
-1.911342784208747e+00 3.724523048901438e+00 0.000000000000000e+00
-2.309424014743727e+00 5.100202818311299e+00 0.000000000000000e+00
-3.372671035453398e+00 6.687436742878234e+00 0.000000000000000e+00
-3.817873797695071e+00 6.714223734941190e+00 0.000000000000000e+00
-2.763999305030478e+00 5.088562807156436e+00 0.000000000000000e+00
-2.309424014743741e+00 5.100202818311264e+00 0.000000000000000e+00
-3.372671035453387e+00 6.687436742878318e+00 0.000000000000000e+00
-3.817873797694692e+00 6.714223734940976e+00 0.000000000000000e+00
-2.763999305030636e+00 5.088562807156454e+00 0.000000000000000e+00
0.000000000000000e+00 0.000000000000000e+00 0.000000000000000e+00
3.295694568690629e-02 7.357198945935521e-02 0.000000000000000e+00
-2.812164119658407e-02 3.722294928470529e-02 0.000000000000000e+00
0.000000000000000e+00 0.000000000000000e+00 0.000000000000000e+00
0.000000000000000e+00 0.000000000000000e+00 0.000000000000000e+00
3.295694568685921e-02 7.357198945944489e-02 0.000000000000000e+00
-2.812164119652423e-02 3.722294928463829e-02 0.000000000000000e+00
0.000000000000000e+00 0.000000000000000e+00 0.000000000000000e+00
3.295694568690629e-02 7.357198945935521e-02 0.000000000000000e+00
1.831122127850492e-03 3.903418685256078e-01 0.000000000000000e+00
-1.708598897783410e-01 4.327059853659023e-01 0.000000000000000e+00
-2.812164119658407e-02 3.722294928470529e-02 0.000000000000000e+00
3.295694568685921e-02 7.357198945944489e-02 0.000000000000000e+00
1.831122127861989e-03 3.903418685256437e-01 0.000000000000000e+00
-1.708598897783114e-01 4.327059853658638e-01 0.000000000000000e+00
-2.812164119652423e-02 3.722294928463829e-02 0.000000000000000e+00
1.831122127850492e-03 3.903418685256078e-01 0.000000000000000e+00
-1.970277503028897e-01 9.449882721487318e-01 0.000000000000000e+00
-5.743165172512752e-01 1.014802017480050e+00 0.000000000000000e+00
-1.708598897783410e-01 4.327059853659023e-01 0.000000000000000e+00
1.831122127861989e-03 3.903418685256437e-01 0.000000000000000e+00
-1.970277503028624e-01 9.449882721485714e-01 0.000000000000000e+00
-5.743165172514602e-01 1.014802017480164e+00 0.000000000000000e+00
-1.708598897783114e-01 4.327059853658638e-01 0.000000000000000e+00
-1.970277503028897e-01 9.449882721487318e-01 0.000000000000000e+00
-6.215384174997171e-01 1.674213149247886e+00 0.000000000000000e+00
-1.074447852949145e+00 1.697426600592720e+00 0.000000000000000e+00
-5.743165172512752e-01 1.014802017480050e+00 0.000000000000000e+00
-1.970277503028624e-01 9.449882721485714e-01 0.000000000000000e+00
-6.215384174994407e-01 1.674213149247713e+00 0.000000000000000e+00
-1.074447852949089e+00 1.697426600592814e+00 0.000000000000000e+00
-5.743165172514602e-01 1.014802017480164e+00 0.000000000000000e+00
-6.215384174997171e-01 1.674213149247886e+00 0.000000000000000e+00
-1.184265251412243e+00 2.576358049582572e+00 0.000000000000000e+00
-1.696129080641617e+00 2.612473052544158e+00 0.000000000000000e+00
-1.074447852949145e+00 1.697426600592720e+00 0.000000000000000e+00
-6.215384174994407e-01 1.674213149247713e+00 0.000000000000000e+00
-1.184265251412555e+00 2.576358049582699e+00 0.000000000000000e+00
-1.696129080641590e+00 2.612473052544066e+00 0.000000000000000e+00
-1.074447852949089e+00 1.697426600592814e+00 0.000000000000000e+00
-1.184265251412243e+00 2.576358049582572e+00 0.000000000000000e+00
-1.911342784209047e+00 3.724523048901612e+00 0.000000000000000e+00
-2.433220997566563e+00 3.719878915516383e+00 0.000000000000000e+00
-1.696129080641617e+00 2.612473052544158e+00 0.000000000000000e+00
-1.184265251412555e+00 2.576358049582699e+00 0.000000000000000e+00
-1.911342784208747e+00 3.724523048901438e+00 0.000000000000000e+00
-2.433220997566742e+00 3.719878915516597e+00 0.000000000000000e+00
-1.696129080641590e+00 2.612473052544066e+00 0.000000000000000e+00
-1.911342784209047e+00 3.724523048901612e+00 0.000000000000000e+00
-2.763999305030478e+00 5.088562807156436e+00 0.000000000000000e+00
-3.274295100474153e+00 5.074323208986603e+00 0.000000000000000e+00
-2.433220997566563e+00 3.719878915516383e+00 0.000000000000000e+00
-1.911342784208747e+00 3.724523048901438e+00 0.000000000000000e+00
-2.763999305030636e+00 5.088562807156454e+00 0.000000000000000e+00
-3.274295100474200e+00 5.074323208986647e+00 0.000000000000000e+00
-2.433220997566742e+00 3.719878915516597e+00 0.000000000000000e+00
-2.763999305030478e+00 5.088562807156436e+00 0.000000000000000e+00
-3.817873797695071e+00 6.714223734941190e+00 0.000000000000000e+00
-4.292637649438125e+00 6.716560003699518e+00 0.000000000000000e+00
-3.274295100474153e+00 5.074323208986603e+00 0.000000000000000e+00
-2.763999305030636e+00 5.088562807156454e+00 0.000000000000000e+00
-3.817873797694692e+00 6.714223734940976e+00 0.000000000000000e+00
-4.292637649438269e+00 6.716560003699756e+00 0.000000000000000e+00
-3.274295100474200e+00 5.074323208986647e+00 0.000000000000000e+00
0.000000000000000e+00 0.000000000000000e+00 0.000000000000000e+00
-2.812164119658407e-02 3.722294928470529e-02 0.000000000000000e+00
-1.046232457857653e-01 1.200218877233077e-01 0.000000000000000e+00
0.000000000000000e+00 0.000000000000000e+00 0.000000000000000e+00
0.000000000000000e+00 0.000000000000000e+00 0.000000000000000e+00
-2.812164119652423e-02 3.722294928463829e-02 0.000000000000000e+00
-1.046232457858386e-01 1.200218877233066e-01 0.000000000000000e+00
0.000000000000000e+00 0.000000000000000e+00 0.000000000000000e+00
-2.812164119658407e-02 3.722294928470529e-02 0.000000000000000e+00
-1.708598897783410e-01 4.327059853659023e-01 0.000000000000000e+00
-5.521783386257845e-01 6.024753648977691e-01 0.000000000000000e+00
-1.046232457857653e-01 1.200218877233077e-01 0.000000000000000e+00
-2.812164119652423e-02 3.722294928463829e-02 0.000000000000000e+00
-1.708598897783114e-01 4.327059853658638e-01 0.000000000000000e+00
-5.521783386257202e-01 6.024753648977444e-01 0.000000000000000e+00
-1.046232457858386e-01 1.200218877233066e-01 0.000000000000000e+00
-1.708598897783410e-01 4.327059853659023e-01 0.000000000000000e+00
-5.743165172512752e-01 1.014802017480050e+00 0.000000000000000e+00
-1.064764731562486e+00 1.072674148553313e+00 0.000000000000000e+00
-5.521783386257845e-01 6.024753648977691e-01 0.000000000000000e+00
-1.708598897783114e-01 4.327059853658638e-01 0.000000000000000e+00
-5.743165172514602e-01 1.014802017480164e+00 0.000000000000000e+00
-1.064764731562453e+00 1.072674148553209e+00 0.000000000000000e+00
-5.521783386257202e-01 6.024753648977444e-01 0.000000000000000e+00
-5.743165172512752e-01 1.014802017480050e+00 0.000000000000000e+00
-1.074447852949145e+00 1.697426600592720e+00 0.000000000000000e+00
-1.620968257177894e+00 1.771329282376780e+00 0.000000000000000e+00
-1.064764731562486e+00 1.072674148553313e+00 0.000000000000000e+00
-5.743165172514602e-01 1.014802017480164e+00 0.000000000000000e+00
-1.074447852949089e+00 1.697426600592814e+00 0.000000000000000e+00
-1.620968257177910e+00 1.771329282376791e+00 0.000000000000000e+00
-1.064764731562453e+00 1.072674148553209e+00 0.000000000000000e+00
-1.074447852949145e+00 1.697426600592720e+00 0.000000000000000e+00
-1.696129080641617e+00 2.612473052544158e+00 0.000000000000000e+00
-2.283834449793459e+00 2.634590986555577e+00 0.000000000000000e+00
-1.620968257177894e+00 1.771329282376780e+00 0.000000000000000e+00
-1.074447852949089e+00 1.697426600592814e+00 0.000000000000000e+00