<?xml version="1.0" ?> 
<!-- 
# vtk DataFile Version 3.0
-->
<VTKFile type="UnstructuredGrid" version="0.1" compressor="vtkZLibDataCompressor" byte_order="LittleEndian">
  <UnstructuredGrid>
    <FieldData>
      <DataArray type="Float64" Name="TIME" NumberOfTuples="1" format="ascii">
1.00000001
      </DataArray>
    </FieldData>

    <Piece NumberOfPoints="144" NumberOfCells="0" >
      <Points>
        <DataArray type="Float64" NumberOfComponents="3" format="ascii">
9.973911591788898e-01 7.070227589081610e-02 1.734723475976807e-18
8.653318377871237e-01 4.995995694850017e-01 4.527195285533919e-01
8.653318377871235e-01 4.995995694850022e-01 4.527195285533924e-01
8.408869671830003e-01 5.400341474920286e-01 5.000000000000000e-01
8.408869671830002e-01 5.400341474920286e-01 5.000000000000000e-01
7.071067811870000e-01 7.071067811870000e-01 7.146018366030000e-01
7.071067811870000e-01 7.071067811870000e-01 7.146018366030000e-01
4.995995694841946e-01 8.653318377857246e-01 9.764841446522946e-01
4.995995694841940e-01 8.653318377857251e-01 9.764841446522954e-01
4.790734834772050e-01 8.767844645519829e-01 1.000000000000000e+00
4.790734834772049e-01 8.767844645519829e-01 1.000000000000000e+00
0.000000000000000e+00 1.000000000000000e+00 1.500000000000000e+00
1.000000000000000e-01 3.000000000000000e-01 2.500000000000000e+00
4.999999999999150e-01 3.000000000000000e-01 2.709523809523729e+00
4.999999999999150e-01 3.000000000000000e-01 2.709523809523729e+00
9.999999999997526e-01 3.000000000000000e-01 2.971428571428497e+00
1.054545454546304e+00 3.000000000000000e-01 3.000000000000488e+00
1.150000000000000e+00 3.000000000000000e-01 3.050000000000000e+00
9.999999999997523e-01 3.000000000000000e-01 2.971428571428498e+00
1.054545454546304e+00 3.000000000000000e-01 3.000000000000488e+00
1.150000000000000e+00 3.000000000000000e-01 3.050000000000000e+00
1.499999999999932e+00 3.000000000000000e-01 3.233333333333250e+00
1.499999999999931e+00 3.000000000000000e-01 3.233333333333250e+00
1.999999999999762e+00 3.000000000000000e-01 3.495238095238032e+00
9.973911591791950e-01 7.070227588610331e-02 4.999999999999999e+00
8.653318377868586e-01 4.995995694848511e-01 5.452719528552424e+00
8.653318377868585e-01 4.995995694848513e-01 5.452719528552424e+00
8.408869671819510e-01 5.400341474932228e-01 5.499999999999999e+00
8.408869671819501e-01 5.400341474932238e-01 5.499999999999999e+00
7.071067811870000e-01 7.071067811870000e-01 5.714601836600000e+00
7.071067811870000e-01 7.071067811870000e-01 5.714601836600000e+00
4.995995694842540e-01 8.653318377858241e-01 5.976484144650065e+00
4.995995694842541e-01 8.653318377858241e-01 5.976484144650065e+00
4.790734834754145e-01 8.767844645530978e-01 6.000000000000000e+00
4.790734834754153e-01 8.767844645530972e-01 5.999999999999999e+00
0.000000000000000e+00 1.000000000000000e+00 6.500000000000000e+00
1.000000000000000e-01 3.000000000000000e-01 7.500000000000000e+00
4.999999999999147e-01 3.000000000000000e-01 7.709523809523729e+00
4.999999999999143e-01 3.000000000000000e-01 7.709523809523729e+00
9.999999999997515e-01 3.000000000000000e-01 7.971428571428498e+00
1.054545454546306e+00 3.000000000000000e-01 8.000000000000490e+00
1.150000000000000e+00 3.000000000000000e-01 8.050000000000001e+00
9.999999999997534e-01 3.000000000000000e-01 7.971428571428499e+00
1.054545454546306e+00 3.000000000000000e-01 8.000000000000490e+00
1.150000000000000e+00 3.000000000000000e-01 8.050000000000001e+00
1.499999999999932e+00 3.000000000000000e-01 8.233333333333253e+00
1.499999999999936e+00 3.000000000000000e-01 8.233333333333253e+00
1.999999999999771e+00 3.000000000000000e-01 8.495238095238037e+00
9.973911591791953e-01 7.070227588610004e-02 9.999999999999998e+00
8.653318377868587e-01 4.995995694848511e-01 1.045271952855242e+01
8.653318377868584e-01 4.995995694848513e-01 1.045271952855242e+01
8.408869671819499e-01 5.400341474932245e-01 1.050000000000000e+01
8.408869671819501e-01 5.400341474932240e-01 1.050000000000000e+01
7.071067811870000e-01 7.071067811870000e-01 1.071460183660000e+01
7.071067811870000e-01 7.071067811870000e-01 1.071460183660000e+01
4.995995694842541e-01 8.653318377858241e-01 1.097648414465006e+01
4.995995694842539e-01 8.653318377858241e-01 1.097648414465006e+01
4.790734834754145e-01 8.767844645530977e-01 1.100000000000000e+01
4.790734834754153e-01 8.767844645530973e-01 1.100000000000000e+01
0.000000000000000e+00 1.000000000000000e+00 1.150000000000000e+01
1.000000000000000e-01 3.000000000000000e-01 1.250000000000000e+01
4.999999999999147e-01 3.000000000000000e-01 1.270952380952373e+01
4.999999999999144e-01 3.000000000000000e-01 1.270952380952373e+01
9.999999999997515e-01 3.000000000000000e-01 1.297142857142850e+01
1.054545454545438e+00 2.999999999999999e-01 1.300000000000003e+01
1.150000000000000e+00 3.000000000000000e-01 1.305000000000000e+01
9.999999999997534e-01 3.000000000000000e-01 1.297142857142850e+01
1.054545454546414e+00 3.000000000000000e-01 1.300000000000055e+01
1.150000000000000e+00 3.000000000000000e-01 1.305000000000000e+01
1.499999999999932e+00 3.000000000000000e-01 1.323333333333325e+01
1.499999999999931e+00 3.000000000000000e-01 1.323333333333325e+01
1.999999999999758e+00 3.000000000000000e-01 1.349523809523803e+01
9.099253964686953e-01 4.123445562477316e-01 1.535465891035187e+01
8.072068738777913e-01 5.895903953545306e-01 1.555997156349025e+01
7.282908569028334e-01 6.852364697704082e-01 1.568414605091978e+01
7.071067811870000e-01 7.071067811870000e-01 1.571460183660000e+01
8.072068738761267e-01 5.895903953568286e-01 1.555997156349309e+01
7.282908569028875e-01 6.852364697703508e-01 1.568414605091970e+01
9.974169025693936e-01 7.035175387221330e-02 1.499964828143268e+01
9.099253964686810e-01 4.123445562477633e-01 1.535465891035190e+01
2.540633997442275e-01 9.663749324558518e-01 1.624282984380450e+01
0.000000000000000e+00 1.000000000000000e+00 1.650000000000000e+01
7.071067811870000e-01 7.071067811870000e-01 1.571460183660000e+01
5.836698286502962e-01 8.114624093930206e-01 1.587652933040267e+01
5.836698286494760e-01 8.114624093936053e-01 1.587652933040367e+01
4.573855792704524e-01 8.882244714673773e-01 1.602452973236955e+01
4.573855792697498e-01 8.882244714677372e-01 1.602452973237035e+01
2.540633997442288e-01 9.663749324558514e-01 1.624282984380449e+01
6.456898118065024e-01 3.000000000000000e-01 1.778583752047008e+01
8.155693453509582e-01 3.000000000000000e-01 1.787482203804103e+01
4.285291040100451e-01 3.000000000000000e-01 1.767208667352902e+01
6.456898118065012e-01 3.000000000000000e-01 1.778583752047008e+01
1.000000000000000e-01 3.000000000000000e-01 1.750000000000000e+01
4.285291040100450e-01 3.000000000000000e-01 1.767208667352902e+01
1.053627568439867e+00 3.000000000000000e-01 1.799951920251616e+01
1.150000000000000e+00 3.000000000000000e-01 1.805000000000000e+01
8.155693453509586e-01 3.000000000000000e-01 1.787482203804103e+01
1.053627568439860e+00 3.000000000000000e-01 1.799951920251616e+01
1.312800678365543e+00 3.000000000000000e-01 1.813527654581046e+01
1.590794601595375e+00 2.999999999999999e-01 1.828089241035946e+01
1.590794601595378e+00 2.999999999999999e-01 1.828089241035946e+01
1.995978191111030e+00 3.000000000000000e-01 1.849313143343917e+01
1.995978191111029e+00 2.999999999999999e-01 1.849313143343917e+01
1.999999999999763e+00 2.999999999999999e-01 1.849523809523803e+01
1.150000000000000e+00 3.000000000000000e-01 1.805000000000000e+01
1.204849796232629e+00 3.000000000000000e-01 1.807873084564564e+01
1.204849796232627e+00 3.000000000000000e-01 1.807873084564564e+01
1.312800678365543e+00 3.000000000000000e-01 1.813527654581046e+01
9.099485189372148e-01 4.122934081581790e-01 2.035460276540421e+01
8.076045172945465e-01 5.890410240244097e-01 2.055929282701539e+01
7.282909319600674e-01 6.852363897773420e-01 2.068414594118266e+01
7.071067811870000e-01 7.071067811870000e-01 2.071460183660000e+01
8.076045172945496e-01 5.890410240244057e-01 2.055929282701539e+01
7.282909319600674e-01 6.852363897773420e-01 2.068414594118266e+01
9.973911599562508e-01 7.070226533250901e-02 1.999999998940045e+01
9.099485189343832e-01 4.122934081644429e-01 2.035460276541108e+01
2.527774973574900e-01 9.667165115395011e-01 2.124416100681000e+01
0.000000000000000e+00 1.000000000000000e+00 2.150000000000000e+01
7.071067811870000e-01 7.071067811870000e-01 2.071460183660000e+01
5.837475137366820e-01 8.114069955678918e-01 2.087643382987410e+01
5.837475137366771e-01 8.114069955678952e-01 2.087643382987411e+01
4.573869885829518e-01 8.882237495531358e-01 2.102452814839284e+01
4.573869885829553e-01 8.882237495531340e-01 2.102452814839284e+01
2.527774973574909e-01 9.667165115395007e-01 2.124416100680999e+01
6.456898117268652e-01 3.000000000000000e-01 2.278583752042836e+01
8.155693453656025e-01 3.000000000000000e-01 2.287482203804870e+01
4.285291040281626e-01 2.999999999999999e-01 2.267208667353851e+01
6.456898117728439e-01 2.999999999999999e-01 2.278583752045244e+01
1.000000000000000e-01 3.000000000000000e-01 2.250000000000000e+01
4.285291039871220e-01 2.999999999999999e-01 2.267208667351701e+01
1.053627568438919e+00 3.000000000000000e-01 2.299951920251566e+01
1.150000000000000e+00 3.000000000000000e-01 2.305000000000000e+01
8.155693453656025e-01 3.000000000000000e-01 2.287482203804870e+01
1.053627568438928e+00 3.000000000000000e-01 2.299951920251567e+01
1.312800678403421e+00 3.000000000000000e-01 2.313527654583030e+01
1.590794601608110e+00 2.999999999999999e-01 2.328089241036613e+01
1.590794601619125e+00 3.000000000000000e-01 2.328089241037190e+01
1.995978191109072e+00 3.000000000000000e-01 2.349313143343815e+01
1.995978191109072e+00 3.000000000000000e-01 2.349313143343815e+01
2.000000000000000e+00 3.000000000000000e-01 2.349523809523815e+01
1.150000000000000e+00 3.000000000000000e-01 2.305000000000000e+01
1.204849796221242e+00 3.000000000000000e-01 2.307873084563967e+01
1.204849796219893e+00 3.000000000000000e-01 2.307873084563897e+01
1.312800678391162e+00 3.000000000000000e-01 2.313527654582388e+01
        </DataArray>
      </Points>

      <Cells>
        <DataArray type="Int32" Name="connectivity" format="ascii">
0 1 2 3 4 5 6 7 8 9 10 11 12 13 14 15 16 17 18 19 20 21 22 23 24 25 26 27 28 29 30 31 32 33 34 35 36 37 38 39 40 41 42 43 44 45 46 47 48 49 50 51 52 53 54 55 56 57 58 59 60 61 62 63 64 65 66 67 68 69 70 71 72 73 74 75 76 77 78 79 80 81 82 83 84 85 86 87 88 89 90 91 92 93 94 95 96 97 98 99 100 101 102 103 104 105 106 107 108 109 110 111 112 113 114 115 116 117 118 119 120 121 122 123 124 125 126 127 128 129 130 131 132 133 134 135 136 137 138 139 140 141 142 143 
        </DataArray>
        <DataArray type="Int32" Name="offsets" format="ascii">

        </DataArray>
        <DataArray type="UInt8" Name="types" format="ascii">

        </DataArray>
      </Cells>

  <PointData>
        <DataArray type="Float64" Name="displacement" NumberOfComponents="3" format="ascii">
2.063639480375725e-01 2.010303082290655e-01 -1.075046009436384e-03
2.434858186783206e-02 9.978231510643487e-02 -9.566626325234251e-03
2.434858186783184e-02 9.978231510643476e-02 -9.566626325234251e-03
1.465030264827394e-02 8.994459132147459e-02 -1.002067965897574e-02
1.465030264827383e-02 8.994459132147470e-02 -1.002067965897574e-02
-1.279040568090339e-02 4.894101967183540e-02 -1.044465528255201e-02
-1.279040568090339e-02 4.894101967183540e-02 -1.044465528255201e-02
-2.220183616717147e-02 1.084941861863253e-02 -8.948914190057056e-03
-2.220183616717164e-02 1.084941861863220e-02 -8.948914190057278e-03
-2.221076626487101e-02 8.289269703335989e-03 -8.769789047119891e-03
-2.221076626487095e-02 8.289269703336100e-03 -8.769789047119891e-03
0.000000000000000e+00 0.000000000000000e+00 0.000000000000000e+00
0.000000000000000e+00 0.000000000000000e+00 0.000000000000000e+00
-4.219522406243847e-03 1.583663494280096e-02 -3.002447939479680e-04
-4.219522406243847e-03 1.583663494280096e-02 -3.002447939479680e-04
-1.648369999116073e-02 8.383638281655009e-02 5.320873013197058e-04
-1.834473398702752e-02 9.475392217741441e-02 4.573330270472020e-04
-2.186634618780148e-02 1.155996462594072e-01 1.686166694074842e-04
-1.648369999116062e-02 8.383638281655009e-02 5.320873013188177e-04
-1.834473398702774e-02 9.475392217741435e-02 4.573330270472020e-04
-2.186634618780148e-02 1.155996462594072e-01 1.686166694074842e-04
-3.542601397234746e-02 2.056429407729035e-01 -3.490022794405689e-03
-3.542601397234746e-02 2.056429407729032e-01 -3.490022794405689e-03
-5.916009386837140e-02 3.716963272564823e-01 -1.581741113235458e-02
2.883475528075098e-01 2.976577811275796e-01 9.593409196775760e-03
7.034309284165918e-02 1.747771662589092e-01 -7.133908279184809e-03
7.034309284165896e-02 1.747771662589091e-01 -7.133908279183920e-03
5.696451353288201e-02 1.616469436883440e-01 -7.643341436812889e-03
5.696451353288168e-02 1.616469436883439e-01 -7.643341436812889e-03
1.373355777502527e-02 1.044382276001199e-01 -7.865107001387983e-03
1.373355777502527e-02 1.044382276001199e-01 -7.865107001387983e-03
-7.297219748581996e-03 4.781176595455072e-02 -4.437390161839971e-03
-7.297219748581940e-03 4.781176595455083e-02 -4.437390161839971e-03
-7.897521694744114e-03 4.371625683276714e-02 -4.024465370782160e-03
-7.897521694744114e-03 4.371625683276736e-02 -4.024465370782160e-03
0.000000000000000e+00 0.000000000000000e+00 0.000000000000000e+00
0.000000000000000e+00 0.000000000000000e+00 0.000000000000000e+00
-1.561114728396851e-02 4.218645910113483e-02 7.739634753360924e-03
-1.561114728396845e-02 4.218645910113478e-02 7.739634753360924e-03
-5.632126545194516e-02 1.846696960431145e-01 2.896599607988914e-02
-6.173063037140736e-02 2.044612571051891e-01 3.093221027225290e-02
-7.150821052341527e-02 2.405319702180638e-01 3.384478814974834e-02
-5.632126545194527e-02 1.846696960431150e-01 2.896599607988826e-02
-6.173063037140736e-02 2.044612571051891e-01 3.093221027225290e-02
-7.150821052341527e-02 2.405319702180638e-01 3.384478814974834e-02
-1.098184461924274e-01 3.898479297709506e-01 3.801637968320293e-02
-1.098184461924283e-01 3.898479297709525e-01 3.801637968320293e-02
-1.766659786415823e-01 6.521070682370972e-01 2.512466307113748e-02
2.926799896214536e-01 3.054286304142825e-01 9.026718618139640e-03
7.196408939792265e-02 1.797172371529688e-01 -7.772072775491523e-03
7.196408939792276e-02 1.797172371529688e-01 -7.772072775491523e-03
5.838058745934638e-02 1.663151870755626e-01 -8.261496133080470e-03
5.838058745934671e-02 1.663151870755626e-01 -8.261496133082247e-03
1.431500630367089e-02 1.077856679054607e-01 -8.363250325936988e-03
1.431500630367089e-02 1.077856679054607e-01 -8.363250325936988e-03
-7.322649862769537e-03 4.958094632157017e-02 -4.722935139946927e-03
-7.322649862769592e-03 4.958094632157017e-02 -4.722935139946927e-03
-7.948356604902285e-03 4.536272363091254e-02 -4.288622541968934e-03
-7.948356604902285e-03 4.536272363091254e-02 -4.288622541968934e-03
0.000000000000000e+00 0.000000000000000e+00 0.000000000000000e+00
0.000000000000000e+00 0.000000000000000e+00 0.000000000000000e+00
-1.593037848333229e-02 4.321460010318451e-02 7.674060611165601e-03
-1.593037848333245e-02 4.321460010318445e-02 7.674060611165601e-03
-5.737927252190955e-02 1.888556959667811e-01 2.893905694018883e-02
-6.288969266075994e-02 2.089912729295974e-01 3.091259925918877e-02
-7.285303962041390e-02 2.456230588950044e-01 3.383786562177704e-02
-5.737927252190966e-02 1.888556959667818e-01 2.893905694019061e-02
-6.288969266085986e-02 2.089912729299634e-01 3.091259925922074e-02
-7.285303962041390e-02 2.456230588950044e-01 3.383786562177704e-02
-1.119039182667214e-01 3.968731523096132e-01 3.785828639870914e-02
-1.119039182667210e-01 3.968731523096127e-01 3.785828639870914e-02
-1.802014438038970e-01 6.620139696684095e-01 2.436857740122278e-02
4.172984780713851e-02 1.028527109096821e-01 -5.042580173826750e-03
1.328375736091969e-02 8.543935229044219e-02 -1.085196867700233e-02
1.251145302062495e-03 7.312041338054054e-02 -1.276607031059029e-02
-1.460439441760331e-03 6.978883678376691e-02 -1.298514846040355e-02
1.328375736061504e-02 8.543935229018040e-02 -1.085196867706628e-02
1.251145302069490e-03 7.312041338054887e-02 -1.276607031059029e-02
1.446445639942661e-01 1.326401988174842e-01 7.472746238052608e-03
4.172984780713229e-02 1.028527109096792e-01 -5.042580173824973e-03
-1.447882709485113e-02 -3.549557680610604e-03 -4.793034181933109e-03
0.000000000000000e+00 0.000000000000000e+00 0.000000000000000e+00
-1.460439441760331e-03 6.978883678376691e-02 -1.298514846040355e-02
-1.239862894301424e-02 4.734907333385430e-02 -1.238454449982562e-02
-1.239862894306176e-02 4.734907333369587e-02 -1.238454449981496e-02
-1.679572852107752e-02 2.367517110507411e-02 -9.904290821211248e-03
-1.679572852108757e-02 2.367517110495110e-02 -9.904290821204143e-03
-1.447882709485121e-02 -3.549557680610604e-03 -4.793034181933109e-03
-4.025016520630809e-03 1.665349563134350e-02 1.304721123471353e-03
-5.874388459320534e-03 2.874003366713673e-02 2.230761638305268e-03
-2.077017281058302e-03 5.847248851640507e-03 3.832976190345505e-04
-4.025016520630587e-03 1.665349563134344e-02 1.304721123471353e-03
0.000000000000000e+00 0.000000000000000e+00 0.000000000000000e+00
-2.077017281058302e-03 5.847248851640563e-03 3.832976190345505e-04
-8.955031016642190e-03 5.076186255135151e-02 3.618130192840852e-03
-1.036668519490824e-02 6.128898018043222e-02 4.152383505800827e-03
-5.874388459320423e-03 2.874003366713673e-02 2.230761638305268e-03
-8.955031016642412e-03 5.076186255135073e-02 3.618130192840852e-03
-1.278406354454242e-02 8.126570092121210e-02 4.781021619027825e-03
-1.683558502231808e-02 1.217727455512232e-01 4.891570237401055e-03
-1.683558502231874e-02 1.217727455512235e-01 4.891570237397502e-03
-2.320196215151538e-02 1.942635281829889e-01 3.555394579930038e-03
-2.320196215151560e-02 1.942635281829886e-01 3.555394579930038e-03
-2.327095593040585e-02 1.950582211190213e-01 3.536503605751307e-03
-1.036668519490824e-02 6.128898018043222e-02 4.152383505800827e-03
-1.119100440875198e-02 6.770066521658918e-02 4.417322763767828e-03
-1.119100440875198e-02 6.770066521658913e-02 4.417322763767828e-03
-1.278406354454242e-02 8.126570092121199e-02 4.781021619027825e-03
1.042672254714018e-01 2.069347193110909e-01 -6.205788669220169e-03
4.314470282680805e-02 1.496919513198056e-01 -8.727146549144749e-03
1.872845748416307e-02 1.156320939102253e-01 -8.575899994287539e-03
1.406197923821872e-02 1.075354797883677e-01 -8.365909913123915e-03
4.314470282680904e-02 1.496919513198071e-01 -8.727146549144749e-03
1.872845748416307e-02 1.156320939102253e-01 -8.575899994287539e-03
2.873701990770889e-01 3.012135144169670e-01 7.996860437007314e-03
1.042672254688566e-01 2.069347193091696e-01 -6.205788669369383e-03
-6.879776270862559e-03 1.192798901095526e-02 -2.536302022448922e-04
0.000000000000000e+00 0.000000000000000e+00 0.000000000000000e+00
1.406197923821872e-02 1.075354797883677e-01 -8.365909913123915e-03
-2.819239232649817e-03 6.876905833656655e-02 -6.320167096330209e-03
-2.819239232650039e-03 6.876905833656533e-02 -6.320167096330209e-03
-8.701264799176767e-03 4.049843816630172e-02 -3.701246442304296e-03
-8.701264799176656e-03 4.049843816630239e-02 -3.701246442304296e-03
-6.879776270862503e-03 1.192798901095549e-02 -2.536302022448922e-04
-2.598845437789332e-02 7.654005781508988e-02 1.387282594462036e-02
-3.989211067017229e-02 1.250857825834527e-01 2.156016396174465e-02
-1.176931488869165e-02 2.974328957521516e-02 5.277526073921734e-03
-2.598845438135478e-02 7.654005782692325e-02 1.387282594665606e-02
0.000000000000000e+00 0.000000000000000e+00 0.000000000000000e+00
-1.176931488643940e-02 2.974328956821798e-02 5.277526072564598e-03
-6.245980381163907e-02 2.067229082070426e-01 3.134288490535297e-02
-7.234553947774014e-02 2.432107901148921e-01 3.432865825375941e-02
-3.989211067017240e-02 1.250857825834527e-01 2.156016396174110e-02
-6.245980381164018e-02 2.067229082070458e-01 3.134288490534587e-02
-8.969855830308004e-02 3.092800558229365e-01 3.762649256236728e-02
-1.218907036769954e-01 4.364001798559778e-01 3.817726549942435e-02
-1.218907036783554e-01 4.364001798613704e-01 3.817726549931066e-02
-1.781487050807433e-01 6.537678764997081e-01 2.678481196073790e-02
-1.781487050807435e-01 6.537678764997080e-01 2.678481196073790e-02
-1.787797859210338e-01 6.561151419052148e-01 2.659575737191133e-02
-7.234553947774014e-02 2.432107901148921e-01 3.432865825375941e-02
-7.810295046514892e-02 2.647771955862918e-01 3.567822587518776e-02
-7.810295046500615e-02 2.647771955857528e-01 3.567822587515579e-02
-8.969855830174023e-02 3.092800558177283e-01 3.762649256220385e-02
        </DataArray>
        <DataArray type="Float64" Name="projection_direction" NumberOfComponents="3" format="ascii">
1.274441582751917e-03 6.822110918561219e-04 -3.614027330775590e-04
4.639273640028807e-03 3.952428694451893e-03 -5.257922375754842e-04
4.639273640029251e-03 3.952428694451560e-03 -5.257922375762059e-04
-1.124807125535865e-03 -1.285032976788614e-03 -1.962236727562350e-04
-1.124807125535643e-03 -1.285032976788725e-03 -1.962236727562350e-04
-8.228075514431499e-04 -1.026833215522549e-03 1.588080642024314e-04
-8.228075514431499e-04 -1.026833215522549e-03 1.588080642024314e-04
1.797008809730105e-03 4.190581091037426e-03 4.327051802344162e-05
1.797008809730882e-03 4.190581091037315e-03 4.327051802310855e-05
-9.600445599061702e-04 -3.702336845153864e-04 2.980027685959286e-04
-9.600445599061702e-04 -3.702336845154974e-04 2.980027685959286e-04
2.814065026702418e-17 0.000000000000000e+00 0.000000000000000e+00
2.031386002891711e-05 3.086283089814290e-04 -1.480778495128732e-04
-2.088032866383593e-04 -1.842207313396849e-03 -1.767840611965887e-04
-2.088032866384149e-04 -1.842207313396904e-03 -1.767840611965887e-04
5.764693873977489e-05 -1.421992336166245e-03 4.995784244021806e-05
-1.436094193008053e-05 5.724774036097724e-06 1.237749100457819e-05
-1.408595906000620e-04 3.543921279415274e-04 -6.270068423575026e-05
5.764693873988591e-05 -1.421992336166189e-03 4.995784244110624e-05
-1.436094192919235e-05 5.724774036319769e-06 1.237749100546637e-05
-1.408595906000620e-04 3.543921279415274e-04 -6.270068423575026e-05
1.290655712957722e-04 -5.152285159399916e-04 1.451458005363726e-04
1.290655712964384e-04 -5.152285159396586e-04 1.451458005377049e-04
3.678950411498683e-04 -7.951052586490093e-04 1.135988276503852e-04
-5.895565880866815e-04 -1.782583139019467e-04 -1.236675000271248e-05
4.142158971542909e-05 8.049394691678202e-05 -1.457581466093316e-04
4.142158971576215e-05 8.049394691655998e-05 -1.457581466102198e-04
-2.998203707904601e-05 -7.591593260691809e-07 3.865712963602164e-05
-2.998203707882396e-05 -7.591593262912255e-07 3.865712963513346e-05
-4.588291594542770e-05 -1.444386820814714e-05 7.527152446407115e-05
-4.588291594542770e-05 -1.444386820814714e-05 7.527152446407115e-05
-1.879834716284057e-05 7.133394598590748e-05 -8.478830431535300e-06
-1.879834716295159e-05 7.133394598579645e-05 -8.478830434199836e-06
-3.668870244344369e-05 3.456662664369503e-05 3.562912688703790e-05
-3.668870244344369e-05 3.456662664347299e-05 3.562912688792608e-05
1.382700256693227e-14 -1.110223024625157e-16 -8.881784197001252e-16
-2.030743832239779e-04 -7.534440229451378e-04 -3.512055671608394e-04
-1.121001727882875e-05 -1.354102717829320e-04 -6.660257551427406e-05
-1.121001727832915e-05 -1.354102717829875e-04 -6.660257551516224e-05
-1.240059826301820e-04 7.183283722411726e-05 -3.536203981724384e-05
1.690461607175564e-04 6.220557713076946e-05 1.034320864974347e-04
-3.603987598643776e-05 -3.669495089020369e-05 -4.317026722056028e-05
-1.240059826320694e-04 7.183283722367317e-05 -3.536203981724384e-05
1.690461607108951e-04 6.220557712832697e-05 1.034320864956584e-04
-3.603987598643776e-05 -3.669495089020369e-05 -4.317026722056028e-05
5.641212312279542e-05 -8.978639064405325e-05 1.211710909476693e-04
5.641212311902066e-05 -8.978639064594063e-05 1.211710909476693e-04
4.815687988357631e-05 5.849833195614718e-05 -3.062783317808737e-05
-3.847235979799191e-04 -3.014632190587174e-04 -3.478672290135876e-04
7.245150852575044e-05 7.761227449254449e-05 -2.218371003070985e-04
7.245150852608351e-05 7.761227449243346e-05 -2.218371003106512e-04
6.585934302294483e-05 -3.979351428262667e-05 -2.909849765053707e-05
6.585934302283381e-05 -3.979351428240463e-05 -2.909849764698436e-05
4.650768612335376e-06 -6.741759842165962e-06 1.148362686720361e-06
4.650768612335376e-06 -6.741759842165962e-06 1.148362686720361e-06
1.888700161334356e-05 7.893856541651978e-05 -2.373887356554860e-05
1.888700161356560e-05 7.893856541651978e-05 -2.373887356377224e-05
4.358751229865954e-05 7.364521227282150e-05 -1.965859594044161e-05
4.358751229854851e-05 7.364521227282150e-05 -1.965859594221797e-05
1.381332456915587e-14 -1.110223024625157e-16 0.000000000000000e+00
-1.303364405118856e-04 -6.341420244364016e-04 -2.600153081644407e-04
-1.903629311228450e-05 -7.927387852413315e-05 -2.903538457843524e-05
-1.903629311345023e-05 -7.927387852219026e-05 -2.903538454113175e-05
-8.868105393411430e-05 3.449739799377127e-07 -2.840144054516713e-05
2.077826716063713e-04 1.303083487158574e-05 1.002060695629581e-04
-1.022460432262839e-04 -3.440480866478968e-05 -9.070020299972725e-05
-8.868105393000647e-05 3.449739715555289e-07 -2.840144067306483e-05
2.077826714975695e-04 1.303083478787492e-05 1.002060690495910e-04
-1.022460432262839e-04 -3.440480866478968e-05 -9.070020299972725e-05
1.047696514122620e-05 -6.724622392095814e-05 5.486331761339613e-05
1.047696514189234e-05 -6.724622392029200e-05 5.486331761694885e-05
-4.039408556999469e-05 3.803146145675562e-06 -1.332317657265492e-05
3.863903660007884e-03 4.707240663952339e-03 -5.153206575165825e-04
-1.994617302102153e-03 -2.963767284957064e-03 2.387233517975318e-04
5.286066657523847e-03 7.612148867249036e-03 -7.350405007748861e-04
2.397877763006373e-03 3.468408266076750e-03 -2.793555067110987e-04
-1.994617296915191e-03 -2.963767290156905e-03 2.387233520622090e-04
5.286066657437249e-03 7.612148866398605e-03 -7.350405166235419e-04
1.427598649810236e-04 1.912481590723325e-03 2.146777536413680e-04
3.863903660036083e-03 4.707240663917700e-03 -5.153206575094771e-04
-1.088006618205184e-03 -1.843711862331010e-03 3.373543554232583e-04
0.000000000000000e+00 0.000000000000000e+00 0.000000000000000e+00
2.397877763006373e-03 3.468408266076750e-03 -2.793555067110987e-04
-2.431844757521118e-03 -3.425078731548070e-03 3.230919656083131e-04
-2.431844755341861e-03 -3.425078732530840e-03 3.230919656793674e-04
3.521056818375834e-03 7.970892796186235e-03 -4.770220528875768e-04
3.521056819241919e-03 7.970892795947981e-03 -4.770220521628232e-04
-1.088006618207071e-03 -1.843711862330344e-03 3.373543554268110e-04
-3.171564544091066e-05 -7.585377362956391e-05 -8.863957298999026e-05
1.303320687401355e-04 -7.888423953752999e-04 1.030312319159066e-04
2.187219224258352e-04 -1.599313260862045e-03 -1.521962266650689e-04
-3.171564544113270e-05 -7.585377362961943e-05 -8.863957299709568e-05
-3.183017780942626e-04 6.519942482131613e-04 1.079588140768806e-04
2.187219224260017e-04 -1.599313260862101e-03 -1.521962266686216e-04
-4.737927557418864e-05 5.582929239757450e-04 -3.979275336263299e-05
-9.337322711910900e-05 -2.452573451824369e-04 -4.189593912684586e-06
1.303320687400245e-04 -7.888423953752999e-04 1.030312319123539e-04
-4.737927557396659e-05 5.582929239759671e-04 -3.979275335552757e-05
4.603982534812090e-05 -2.396048031844122e-05 -4.594080220243768e-06
-6.850512315859092e-06 -1.143205817069337e-03 1.245857089315905e-04
-6.850512315859092e-06 -1.143205817069504e-03 1.245857089280378e-04
9.421322991998160e-05 -1.430055891781246e-03 7.172140537292648e-05
9.421322992064773e-05 -1.430055891781024e-03 7.172140536937377e-05
1.057297328552753e-04 -1.574218917265724e-03 6.955370112393666e-05
-9.337322711910900e-05 -2.452573451824369e-04 -4.189593912684586e-06
-9.866577662243081e-05 -1.122831850845774e-03 5.520156979343938e-05
-9.866577662220877e-05 -1.122831850845718e-03 5.520156979699209e-05
4.603982534812090e-05 -2.396048031844122e-05 -4.594080220243768e-06
-6.578359012210377e-05 8.140767639364110e-05 1.970723619848513e-05
-4.886984671947925e-05 -1.198495758192308e-05 2.242680309905154e-06
-8.729749183289393e-05 7.401481587099301e-05 2.528354363562357e-05
-2.502680389171452e-05 -5.101431089504782e-05 6.171259193976653e-05
-4.886984673280192e-05 -1.198495757215312e-05 2.242680309905154e-06
-8.729749183311597e-05 7.401481587099301e-05 2.528354362141272e-05
-1.230256032417554e-03 -4.089741166501959e-05 -1.801858982801718e-04
-6.578358371545079e-05 8.140767017672523e-05 1.970723634769911e-05
-1.156938282111386e-04 3.554279144379890e-05 6.221123638283643e-05
-1.481362437268312e-11 7.638334409421077e-14 -1.314504061156185e-13
-2.502680389171452e-05 -5.101431089504782e-05 6.171259193976653e-05
3.661907544416643e-06 -7.133793491587159e-05 -2.378569001848518e-05
3.661907558294430e-06 -7.133793492231089e-05 -2.378569002203790e-05
-1.276585737460811e-04 -1.399341372032570e-05 3.844150824861003e-05
-1.276585737503000e-04 -1.399341371866036e-05 3.844150824861003e-05
-1.156938282111941e-04 3.554279144379890e-05 6.221123638994186e-05
-2.449553911998414e-05 -3.219958308531279e-05 -5.097398100062378e-05
-1.862792696905036e-05 -8.040329529024337e-05 -4.087157007504061e-05
-4.123027413244218e-05 -9.227026896102553e-05 -6.594038922713708e-05
-2.449554265204767e-05 -3.219957954725405e-05 -5.097391507646876e-05
-1.121919794047493e-04 -7.726841768186943e-04 -2.466538583689726e-04
-4.123027892821707e-05 -9.227026315827835e-05 -6.594026923423257e-05
1.251828306333413e-04 -1.025297600598662e-06 6.136535923317865e-05
-5.999046424887133e-05 -8.297665221157491e-05 -1.364869007680625e-04
-1.862792696893933e-05 -8.040329529018786e-05 -4.087157006793518e-05
1.251828306334524e-04 -1.025297600931729e-06 6.136535922962594e-05
7.344451203761260e-05 -2.396549328997910e-05 8.532414617334894e-05
-7.013945603229210e-05 -5.825532085301788e-05 5.627047361400628e-05
-7.013944926703708e-05 -5.825532326886318e-05 5.627043132605536e-05