<?xml version="1.0" ?> 
<!-- 
# vtk DataFile Version 3.0
-->
<VTKFile type="UnstructuredGrid" version="0.1" compressor="vtkZLibDataCompressor" byte_order="LittleEndian">
  <UnstructuredGrid>
    <FieldData>
      <DataArray type="Float64" Name="TIME" NumberOfTuples="1" format="ascii">
3
      </DataArray>
    </FieldData>

    <Piece NumberOfPoints="144" NumberOfCells="0" >
      <Points>
        <DataArray type="Float64" NumberOfComponents="3" format="ascii">
9.973911591788898e-01 7.070227589081610e-02 1.734723475976807e-18
8.653318377871237e-01 4.995995694850017e-01 4.527195285533919e-01
8.653318377871235e-01 4.995995694850022e-01 4.527195285533924e-01
8.408869671830003e-01 5.400341474920286e-01 5.000000000000000e-01
8.408869671830002e-01 5.400341474920286e-01 5.000000000000000e-01
7.071067811870000e-01 7.071067811870000e-01 7.146018366030000e-01
7.071067811870000e-01 7.071067811870000e-01 7.146018366030000e-01
4.995995694841946e-01 8.653318377857246e-01 9.764841446522946e-01
4.995995694841940e-01 8.653318377857251e-01 9.764841446522954e-01
4.790734834772050e-01 8.767844645519829e-01 1.000000000000000e+00
4.790734834772049e-01 8.767844645519829e-01 1.000000000000000e+00
0.000000000000000e+00 1.000000000000000e+00 1.500000000000000e+00
1.000000000000000e-01 3.000000000000000e-01 2.500000000000000e+00
4.999999999999150e-01 3.000000000000000e-01 2.709523809523729e+00
4.999999999999150e-01 3.000000000000000e-01 2.709523809523729e+00
9.999999999997526e-01 3.000000000000000e-01 2.971428571428497e+00
1.054545454546304e+00 3.000000000000000e-01 3.000000000000488e+00
1.150000000000000e+00 3.000000000000000e-01 3.050000000000000e+00
9.999999999997523e-01 3.000000000000000e-01 2.971428571428498e+00
1.054545454546304e+00 3.000000000000000e-01 3.000000000000488e+00
1.150000000000000e+00 3.000000000000000e-01 3.050000000000000e+00
1.499999999999932e+00 3.000000000000000e-01 3.233333333333250e+00
1.499999999999931e+00 3.000000000000000e-01 3.233333333333250e+00
1.999999999999762e+00 3.000000000000000e-01 3.495238095238032e+00
9.973911591791950e-01 7.070227588610331e-02 4.999999999999999e+00
8.653318377868586e-01 4.995995694848511e-01 5.452719528552424e+00
8.653318377868585e-01 4.995995694848513e-01 5.452719528552424e+00
8.408869671819510e-01 5.400341474932228e-01 5.499999999999999e+00
8.408869671819501e-01 5.400341474932238e-01 5.499999999999999e+00
7.071067811870000e-01 7.071067811870000e-01 5.714601836600000e+00
7.071067811870000e-01 7.071067811870000e-01 5.714601836600000e+00
4.995995694842540e-01 8.653318377858241e-01 5.976484144650065e+00
4.995995694842541e-01 8.653318377858241e-01 5.976484144650065e+00
4.790734834754145e-01 8.767844645530978e-01 6.000000000000000e+00
4.790734834754153e-01 8.767844645530972e-01 5.999999999999999e+00
0.000000000000000e+00 1.000000000000000e+00 6.500000000000000e+00
1.000000000000000e-01 3.000000000000000e-01 7.500000000000000e+00
4.999999999999147e-01 3.000000000000000e-01 7.709523809523729e+00
4.999999999999143e-01 3.000000000000000e-01 7.709523809523729e+00
9.999999999997515e-01 3.000000000000000e-01 7.971428571428498e+00
1.054545454546306e+00 3.000000000000000e-01 8.000000000000490e+00
1.150000000000000e+00 3.000000000000000e-01 8.050000000000001e+00
9.999999999997534e-01 3.000000000000000e-01 7.971428571428499e+00
1.054545454546306e+00 3.000000000000000e-01 8.000000000000490e+00
1.150000000000000e+00 3.000000000000000e-01 8.050000000000001e+00
1.499999999999932e+00 3.000000000000000e-01 8.233333333333253e+00
1.499999999999936e+00 3.000000000000000e-01 8.233333333333253e+00
1.999999999999771e+00 3.000000000000000e-01 8.495238095238037e+00
9.973911591791953e-01 7.070227588610004e-02 9.999999999999998e+00
8.653318377868587e-01 4.995995694848511e-01 1.045271952855242e+01
8.653318377868584e-01 4.995995694848513e-01 1.045271952855242e+01
8.408869671819499e-01 5.400341474932245e-01 1.050000000000000e+01
8.408869671819501e-01 5.400341474932240e-01 1.050000000000000e+01
7.071067811870000e-01 7.071067811870000e-01 1.071460183660000e+01
7.071067811870000e-01 7.071067811870000e-01 1.071460183660000e+01
4.995995694842541e-01 8.653318377858241e-01 1.097648414465006e+01
4.995995694842539e-01 8.653318377858241e-01 1.097648414465006e+01
4.790734834754145e-01 8.767844645530977e-01 1.100000000000000e+01
4.790734834754153e-01 8.767844645530973e-01 1.100000000000000e+01
0.000000000000000e+00 1.000000000000000e+00 1.150000000000000e+01
1.000000000000000e-01 3.000000000000000e-01 1.250000000000000e+01
4.999999999999147e-01 3.000000000000000e-01 1.270952380952373e+01
4.999999999999144e-01 3.000000000000000e-01 1.270952380952373e+01
9.999999999997515e-01 3.000000000000000e-01 1.297142857142850e+01
1.054545454545438e+00 2.999999999999999e-01 1.300000000000003e+01
1.150000000000000e+00 3.000000000000000e-01 1.305000000000000e+01
9.999999999997534e-01 3.000000000000000e-01 1.297142857142850e+01
1.054545454546414e+00 3.000000000000000e-01 1.300000000000055e+01
1.150000000000000e+00 3.000000000000000e-01 1.305000000000000e+01
1.499999999999932e+00 3.000000000000000e-01 1.323333333333325e+01
1.499999999999931e+00 3.000000000000000e-01 1.323333333333325e+01
1.999999999999758e+00 3.000000000000000e-01 1.349523809523803e+01
9.099253964686953e-01 4.123445562477316e-01 1.535465891035187e+01
8.072068738777913e-01 5.895903953545306e-01 1.555997156349025e+01
7.282908569028334e-01 6.852364697704082e-01 1.568414605091978e+01
7.071067811870000e-01 7.071067811870000e-01 1.571460183660000e+01
8.072068738761267e-01 5.895903953568286e-01 1.555997156349309e+01
7.282908569028875e-01 6.852364697703508e-01 1.568414605091970e+01
9.974169025693936e-01 7.035175387221330e-02 1.499964828143268e+01
9.099253964686810e-01 4.123445562477633e-01 1.535465891035190e+01
2.540633997442275e-01 9.663749324558518e-01 1.624282984380450e+01
0.000000000000000e+00 1.000000000000000e+00 1.650000000000000e+01
7.071067811870000e-01 7.071067811870000e-01 1.571460183660000e+01
5.836698286502962e-01 8.114624093930206e-01 1.587652933040267e+01
5.836698286494760e-01 8.114624093936053e-01 1.587652933040367e+01
4.573855792704524e-01 8.882244714673773e-01 1.602452973236955e+01
4.573855792697498e-01 8.882244714677372e-01 1.602452973237035e+01
2.540633997442288e-01 9.663749324558514e-01 1.624282984380449e+01
6.456898118065024e-01 3.000000000000000e-01 1.778583752047008e+01
8.155693453509582e-01 3.000000000000000e-01 1.787482203804103e+01
4.285291040100451e-01 3.000000000000000e-01 1.767208667352902e+01
6.456898118065012e-01 3.000000000000000e-01 1.778583752047008e+01
1.000000000000000e-01 3.000000000000000e-01 1.750000000000000e+01
4.285291040100450e-01 3.000000000000000e-01 1.767208667352902e+01
1.053627568439867e+00 3.000000000000000e-01 1.799951920251616e+01
1.150000000000000e+00 3.000000000000000e-01 1.805000000000000e+01
8.155693453509586e-01 3.000000000000000e-01 1.787482203804103e+01
1.053627568439860e+00 3.000000000000000e-01 1.799951920251616e+01
1.312800678365543e+00 3.000000000000000e-01 1.813527654581046e+01
1.590794601595375e+00 2.999999999999999e-01 1.828089241035946e+01
1.590794601595378e+00 2.999999999999999e-01 1.828089241035946e+01
1.995978191111030e+00 3.000000000000000e-01 1.849313143343917e+01
1.995978191111029e+00 2.999999999999999e-01 1.849313143343917e+01
1.999999999999763e+00 2.999999999999999e-01 1.849523809523803e+01
1.150000000000000e+00 3.000000000000000e-01 1.805000000000000e+01
1.204849796232629e+00 3.000000000000000e-01 1.807873084564564e+01
1.204849796232627e+00 3.000000000000000e-01 1.807873084564564e+01
1.312800678365543e+00 3.000000000000000e-01 1.813527654581046e+01
9.099485189372148e-01 4.122934081581790e-01 2.035460276540421e+01
8.076045172945465e-01 5.890410240244097e-01 2.055929282701539e+01
7.282909319600674e-01 6.852363897773420e-01 2.068414594118266e+01
7.071067811870000e-01 7.071067811870000e-01 2.071460183660000e+01
8.076045172945496e-01 5.890410240244057e-01 2.055929282701539e+01
7.282909319600674e-01 6.852363897773420e-01 2.068414594118266e+01
9.973911599562508e-01 7.070226533250901e-02 1.999999998940045e+01
9.099485189343832e-01 4.122934081644429e-01 2.035460276541108e+01
2.527774973574900e-01 9.667165115395011e-01 2.124416100681000e+01
0.000000000000000e+00 1.000000000000000e+00 2.150000000000000e+01
7.071067811870000e-01 7.071067811870000e-01 2.071460183660000e+01
5.837475137366820e-01 8.114069955678918e-01 2.087643382987410e+01
5.837475137366771e-01 8.114069955678952e-01 2.087643382987411e+01
4.573869885829518e-01 8.882237495531358e-01 2.102452814839284e+01
4.573869885829553e-01 8.882237495531340e-01 2.102452814839284e+01
2.527774973574909e-01 9.667165115395007e-01 2.124416100680999e+01
6.456898117268652e-01 3.000000000000000e-01 2.278583752042836e+01
8.155693453656025e-01 3.000000000000000e-01 2.287482203804870e+01
4.285291040281626e-01 2.999999999999999e-01 2.267208667353851e+01
6.456898117728439e-01 2.999999999999999e-01 2.278583752045244e+01
1.000000000000000e-01 3.000000000000000e-01 2.250000000000000e+01
4.285291039871220e-01 2.999999999999999e-01 2.267208667351701e+01
1.053627568438919e+00 3.000000000000000e-01 2.299951920251566e+01
1.150000000000000e+00 3.000000000000000e-01 2.305000000000000e+01
8.155693453656025e-01 3.000000000000000e-01 2.287482203804870e+01
1.053627568438928e+00 3.000000000000000e-01 2.299951920251567e+01
1.312800678403421e+00 3.000000000000000e-01 2.313527654583030e+01
1.590794601608110e+00 2.999999999999999e-01 2.328089241036613e+01
1.590794601619125e+00 3.000000000000000e-01 2.328089241037190e+01
1.995978191109072e+00 3.000000000000000e-01 2.349313143343815e+01
1.995978191109072e+00 3.000000000000000e-01 2.349313143343815e+01
2.000000000000000e+00 3.000000000000000e-01 2.349523809523815e+01
1.150000000000000e+00 3.000000000000000e-01 2.305000000000000e+01
1.204849796221242e+00 3.000000000000000e-01 2.307873084563967e+01
1.204849796219893e+00 3.000000000000000e-01 2.307873084563897e+01
1.312800678391162e+00 3.000000000000000e-01 2.313527654582388e+01
        </DataArray>
      </Points>

      <Cells>
        <DataArray type="Int32" Name="connectivity" format="ascii">
0 1 2 3 4 5 6 7 8 9 10 11 12 13 14 15 16 17 18 19 20 21 22 23 24 25 26 27 28 29 30 31 32 33 34 35 36 37 38 39 40 41 42 43 44 45 46 47 48 49 50 51 52 53 54 55 56 57 58 59 60 61 62 63 64 65 66 67 68 69 70 71 72 73 74 75 76 77 78 79 80 81 82 83 84 85 86 87 88 89 90 91 92 93 94 95 96 97 98 99 100 101 102 103 104 105 106 107 108 109 110 111 112 113 114 115 116 117 118 119 120 121 122 123 124 125 126 127 128 129 130 131 132 133 134 135 136 137 138 139 140 141 142 143 
        </DataArray>
        <DataArray type="Int32" Name="offsets" format="ascii">

        </DataArray>
        <DataArray type="UInt8" Name="types" format="ascii">

        </DataArray>
      </Cells>

  <PointData>
        <DataArray type="Float64" Name="displacement" NumberOfComponents="3" format="ascii">
2.820101733286333e-01 2.788117980202295e-01 2.186110543097167e-02
4.179496394805116e-02 1.361971614305878e-01 -4.273577623000457e-03
4.179496394805104e-02 1.361971614305876e-01 -4.273577623000457e-03
2.893260815483212e-02 1.230719906427484e-01 -5.409917701255151e-03
2.893260815483223e-02 1.230719906427485e-01 -5.409917701255151e-03
-8.420017548658842e-03 6.886963318852346e-02 -7.826177504476006e-03
-8.420017548658842e-03 6.886963318852346e-02 -7.826177504476006e-03
-2.294398196816477e-02 1.931398043324195e-02 -7.557180218712767e-03
-2.294398196816477e-02 1.931398043324162e-02 -7.557180218712767e-03
-2.313282271695816e-02 1.600857632311392e-02 -7.437971945700728e-03
-2.313282271695816e-02 1.600857632311392e-02 -7.437971945700506e-03
0.000000000000000e+00 0.000000000000000e+00 0.000000000000000e+00
0.000000000000000e+00 0.000000000000000e+00 0.000000000000000e+00
-8.373832241244106e-03 2.907689490050769e-02 -2.593378824693460e-04
-8.373832241244106e-03 2.907689490050769e-02 -2.593378824693460e-04
-3.616914617769196e-02 1.485091153643315e-01 1.321896890393859e-05
-4.065223687536346e-02 1.672653624626460e-01 -5.020124047576680e-04
-4.927666127151054e-02 2.028457720131748e-01 -1.850223184457267e-03
-3.616914617769174e-02 1.485091153643315e-01 1.321896890349450e-05
-4.065223687536390e-02 1.672653624626460e-01 -5.020124047572239e-04
-4.927666127151054e-02 2.028457720131748e-01 -1.850223184457267e-03
-8.453102119478073e-02 3.546703231898852e-01 -1.315042200329497e-02
-8.453102119478051e-02 3.546703231898848e-01 -1.315042200329497e-02
-1.493255886215812e-01 6.272807060992710e-01 -4.770283319983326e-02
3.443924457215451e-01 3.499363211253448e-01 3.748653103003274e-02
8.031661341444152e-02 1.986719387643670e-01 -1.583767800389602e-03
8.031661341444130e-02 1.986719387643669e-01 -1.583767800389602e-03
6.481366161469793e-02 1.834735973634487e-01 -2.986400620213381e-03
6.481366161469748e-02 1.834735973634484e-01 -2.986400620212493e-03
1.546373793481781e-02 1.183127837489536e-01 -5.804959977245616e-03
1.546373793481781e-02 1.183127837489536e-01 -5.804959977245616e-03
-8.474837854036243e-03 5.436793453063127e-02 -3.879257343913700e-03
-8.474837854036188e-03 5.436793453063127e-02 -3.879257343913700e-03
-9.165002538696176e-03 4.973817576362527e-02 -3.528807769876963e-03
-9.165002538696232e-03 4.973817576362549e-02 -3.528807769876963e-03
0.000000000000000e+00 0.000000000000000e+00 0.000000000000000e+00
0.000000000000000e+00 0.000000000000000e+00 0.000000000000000e+00
-2.983530889859665e-02 6.834475420800817e-02 1.084007799205544e-02
-2.983530889859659e-02 6.834475420800812e-02 1.084007799205544e-02
-1.146082171753664e-01 2.910410925756561e-01 4.041996216327259e-02
-1.262561677008129e-01 3.209972600737478e-01 4.294842396499021e-02
-1.475210440502692e-01 3.749517215609252e-01 4.647017790938079e-02
-1.146082171753670e-01 2.910410925756571e-01 4.041996216327171e-02
-1.262561677008129e-01 3.209972600737478e-01 4.294842396499021e-02
-1.475210440502692e-01 3.749517215609252e-01 4.647017790938079e-02
-2.347556388264198e-01 5.958161068519152e-01 4.779381349256440e-02
-2.347556388264216e-01 5.958161068519180e-01 4.779381349256617e-02
-3.891366598951469e-01 9.744171508517716e-01 1.761658849475189e-02
3.471200728653312e-01 3.552058164911729e-01 3.711977853900450e-02
8.138003888295020e-02 2.019833402567772e-01 -2.117836961776476e-03
8.138003888295009e-02 2.019833402567771e-01 -2.117836961776476e-03
6.576791592824860e-02 1.866172806521808e-01 -3.487282477957265e-03
6.576791592824893e-02 1.866172806521809e-01 -3.487282477959042e-03
1.596734182084525e-02 1.206782718413086e-01 -6.135264692506581e-03
1.596734182084525e-02 1.206782718413086e-01 -6.135264692506581e-03
-8.365241005294233e-03 5.575294790455687e-02 -4.031927273173253e-03
-8.365241005294288e-03 5.575294790455676e-02 -4.031927273173253e-03
-9.077367444266071e-03 5.104007707625435e-02 -3.667574897601611e-03
-9.077367444265960e-03 5.104007707625435e-02 -3.667574897599835e-03
0.000000000000000e+00 0.000000000000000e+00 0.000000000000000e+00
0.000000000000000e+00 0.000000000000000e+00 0.000000000000000e+00
-3.061874084516114e-02 6.997463508118934e-02 1.060048291549620e-02
-3.061874084516120e-02 6.997463508118923e-02 1.060048291549442e-02
-1.174077490760288e-01 2.973856197444844e-01 4.006520667953417e-02
-1.292992380211762e-01 3.278037726023341e-01 4.258911345001870e-02
-1.509866210245447e-01 3.824670538877709e-01 4.610527407620957e-02
-1.174077490760294e-01 2.973856197444854e-01 4.006520667953772e-02
-1.292992380213923e-01 3.278037726028847e-01 4.258911345006311e-02
-1.509866210245447e-01 3.824670538877709e-01 4.610527407620957e-02
-2.399580412568647e-01 6.057690532929005e-01 4.704047850467319e-02
-2.399580412568643e-01 6.057690532928999e-01 4.704047850467319e-02
-3.973475002972349e-01 9.878297996966037e-01 1.564099712881983e-02
6.468053536352225e-02 1.440429729555497e-01 -1.772416328650550e-03
2.068301535507211e-02 1.148221578758866e-01 -9.947779444340554e-03
3.023563926455863e-03 9.578246970566628e-02 -1.262563733906141e-02
-6.049734784426830e-04 9.085535920868082e-02 -1.294965411387849e-02
2.068301535460515e-02 1.148221578754673e-01 -9.947779444425819e-03
3.023563926465522e-03 9.578246970567894e-02 -1.262563733905786e-02
2.106271090681563e-01 1.959384708248245e-01 1.763475905766221e-02
6.468053536351281e-02 1.440429729555449e-01 -1.772416328650550e-03
-1.634991947270409e-02 -2.516235872397354e-04 -4.700986060004908e-03
0.000000000000000e+00 0.000000000000000e+00 0.000000000000000e+00
-6.049734784426830e-04 9.085535920868082e-02 -1.294965411387849e-02
-1.452140231482946e-02 6.100547000110590e-02 -1.259214089710881e-02
-1.452140231488774e-02 6.100547000090728e-02 -1.259214089709815e-02
-1.965756410153785e-02 3.218340076856385e-02 -1.005260772863537e-02
-1.965756410154790e-02 3.218340076841719e-02 -1.005260772862115e-02
-1.634991947270414e-02 -2.516235872396244e-04 -4.700986060004908e-03
-8.491425173667078e-03 3.220776000074271e-02 2.241461793996535e-03
-1.274987675954786e-02 5.550368760549340e-02 3.773625770957523e-03
-4.230497182658333e-03 1.133581522279026e-02 6.381723384869531e-04
-8.491425173667078e-03 3.220776000074260e-02 2.241461794000088e-03
0.000000000000000e+00 0.000000000000000e+00 0.000000000000000e+00
-4.230497182658277e-03 1.133581522279020e-02 6.381723384869531e-04
-2.022930427345893e-02 9.785439956916941e-02 5.844069224558268e-03
-2.379786825696173e-02 1.180629795679450e-01 6.526369653933273e-03
-1.274987675954786e-02 5.550368760549346e-02 3.773625770957523e-03
-2.022930427345870e-02 9.785439956916792e-02 5.844069224554715e-03
-3.025943396645214e-02 1.563589300870434e-01 6.975328532107028e-03
-4.233056405931768e-02 2.337960135751832e-01 5.312213010753908e-03
-4.233056405931834e-02 2.337960135751839e-01 5.312213010750355e-03
-6.361020676346474e-02 3.716231589574000e-01 -1.395484050853213e-03
-6.361020676346474e-02 3.716231589573996e-01 -1.395484050853213e-03
-6.384981916140320e-02 3.731287651424889e-01 -1.481711771017302e-03
-2.379786825696173e-02 1.180629795679450e-01 6.526369653933273e-03
-2.593781920766203e-02 1.303615210796319e-01 6.806796085061961e-03
-2.593781920766181e-02 1.303615210796317e-01 6.806796085061961e-03
-3.025943396645214e-02 1.563589300870433e-01 6.975328532103475e-03
1.190412018721966e-01 2.333624151298456e-01 1.891396825065783e-03
4.836899578137022e-02 1.673990648512188e-01 -4.880706933814594e-03
2.093187404914698e-02 1.290692141736371e-01 -6.053163636558168e-03
1.572373338479005e-02 1.200150387806711e-01 -6.098778903918856e-03
4.836899578137133e-02 1.673990648512204e-01 -4.880706933814594e-03
2.093187404914698e-02 1.290692141736371e-01 -6.053163636558168e-03
3.423459741766979e-01 3.507268007570306e-01 3.584251280377515e-02
1.190412018692004e-01 2.333624151275855e-01 1.891396824710512e-03
-7.873175321035653e-03 1.346050504173990e-02 5.362262310271149e-05
0.000000000000000e+00 0.000000000000000e+00 0.000000000000000e+00
1.572373338479005e-02 1.200150387806711e-01 -6.098778903918856e-03
-3.166170723077455e-03 7.675278096706195e-02 -5.090265150808904e-03
-3.166170723077788e-03 7.675278096706051e-02 -5.090265150812456e-03
-9.820554330210451e-03 4.526589789383961e-02 -3.014781017203205e-03
-9.820554330210340e-03 4.526589789384028e-02 -3.014781017203205e-03
-7.873175321035653e-03 1.346050504174001e-02 5.362262310271149e-05
-5.182561081601011e-02 1.245526231219532e-01 1.953383619484228e-02
-8.110110264613868e-02 2.015482021889018e-01 3.033934651538317e-02
-2.259034476614802e-02 4.881350274321716e-02 7.250735418111276e-03
-5.182561082322790e-02 1.245526231409140e-01 1.953383619773774e-02
0.000000000000000e+00 0.000000000000000e+00 0.000000000000000e+00
-2.259034476160338e-02 4.881350273177626e-02 7.250735416164389e-03
-1.296121515263594e-01 3.274326505681284e-01 4.343094186033625e-02
-1.512065897902887e-01 3.821619004728700e-01 4.702792868709338e-02
-8.110110264613868e-02 2.015482021889018e-01 3.033934651538317e-02
-1.296121515263615e-01 3.274326505681331e-01 4.343094186032914e-02
-1.901964075257161e-01 4.803405117005530e-01 4.997064926264017e-02
-2.652017597207348e-01 6.680605695386695e-01 4.585675143573198e-02
-2.652017597239278e-01 6.680605695465782e-01 4.585675143533408e-02
-3.954376921002116e-01 9.817954303027481e-01 1.917618699581070e-02
-3.954376921002118e-01 9.817954303027476e-01 1.917618699581070e-02
-3.968637998023254e-01 9.851229086480038e-01 1.878818912694058e-02
-1.512065897902887e-01 3.821619004728700e-01 4.702792868709338e-02
-1.639538908520659e-01 4.142187896596949e-01 4.846057140855820e-02
-1.639538908517475e-01 4.142187896588936e-01 4.846057140852977e-02
-1.901964075226474e-01 4.803405116928213e-01 4.997064926256911e-02
        </DataArray>
        <DataArray type="Float64" Name="projection_direction" NumberOfComponents="3" format="ascii">
2.454591421567898e-04 6.596766004497989e-04 -7.838766732507080e-04
4.294071672440003e-03 4.225828167260692e-03 -5.427660422261393e-04
4.294071672440447e-03 4.225828167260470e-03 -5.427660422268610e-04
-1.053806972633353e-03 -1.240883757672062e-03 -1.787795299593165e-04
-1.053806972633353e-03 -1.240883757672173e-03 -1.787795299593165e-04
-7.000338742627621e-04 -1.035547124133562e-03 1.836225662313895e-04
-7.000338742627621e-04 -1.035547124133562e-03 1.836225662313895e-04
1.532783290858875e-03 3.929866114030234e-03 -6.740906377622480e-05
1.532783290859485e-03 3.929866114030123e-03 -6.740906377677991e-05
-9.170289733276826e-04 -4.424801959459490e-04 2.576424525031484e-04
-9.170289733276271e-04 -4.424801959459490e-04 2.576424525029264e-04
2.793984737705256e-17 0.000000000000000e+00 0.000000000000000e+00
4.334224396806974e-05 7.103770772253215e-04 -1.799293401685276e-04
-2.723986774947340e-04 -3.447346484212632e-03 -4.173084338741084e-04
-2.723986774947340e-04 -3.447346484212632e-03 -4.173084338741084e-04
2.972367711173707e-04 -2.492312690937137e-03 1.337762766691064e-04
-4.102789984727906e-05 1.222928666433365e-05 -3.138281494541317e-05
-3.071469707205399e-04 5.752554517040043e-04 -1.615959273895129e-04
2.972367711173707e-04 -2.492312690937026e-03 1.337762766699946e-04
-4.102789984639088e-05 1.222928666455569e-05 -3.138281494496908e-05
-3.071469707205399e-04 5.752554517040043e-04 -1.615959273895129e-04
3.020318214104201e-04 -7.772677392416938e-04 3.339755021873891e-04
3.020318214108642e-04 -7.772677392412497e-04 3.339755021878332e-04
7.488590203059697e-04 -1.136680672842227e-03 3.368230272853268e-04
-1.239035591474646e-03 -1.569998337484502e-04 1.112704911063744e-04
3.798133148169569e-05 9.834688989451834e-05 -2.310883809011344e-04
3.798133148202876e-05 9.834688989429630e-05 -2.310883809011344e-04
-8.303174108625910e-05 -3.156856405583941e-05 6.899819538919161e-05
-8.303174108603706e-05 -3.156856405595043e-05 6.899819538741525e-05
-6.723451932189040e-05 -3.889449579563831e-05 4.873861770349208e-05
-6.723451932189040e-05 -3.889449579563831e-05 4.873861770349208e-05
-3.944900166885645e-05 6.713298148663949e-05 -2.417016684841400e-05
-3.944900166891196e-05 6.713298148686153e-05 -2.417016685019036e-05
-5.265901478379575e-05 1.453317380861741e-05 3.458379644882825e-05
-5.265901478362922e-05 1.453317380850638e-05 3.458379644794007e-05
1.376297724392313e-14 -1.110223024625157e-16 0.000000000000000e+00
-1.531127691493939e-04 -1.283437541486521e-03 -5.796406552107669e-04
5.847091920951897e-05 -2.652973751415821e-04 -9.526199048259798e-05
5.847091921007408e-05 -2.652973751415821e-04 -9.526199048348616e-05
-1.760949184972382e-04 1.732187650874684e-04 -2.166632519973177e-05
2.504475682034712e-04 1.617093513542889e-04 1.443835699657114e-04
-3.728857341100955e-05 -1.162955590829906e-04 -5.911462125496314e-05
-1.760949184986815e-04 1.732187650864692e-04 -2.166632519973177e-05
2.504475681973650e-04 1.617093513506251e-04 1.443835699639351e-04
-3.728857341100955e-05 -1.162955590829906e-04 -5.911462125496314e-05
8.500841575820317e-05 -1.243200665399513e-04 1.498497654726094e-04
8.500841575553864e-05 -1.243200665427269e-04 1.498497654708331e-04
-1.408361339327868e-05 -1.211887600927053e-04 -1.604027869248625e-04
-9.183846903297876e-04 -3.024872192292638e-04 -3.608577554654602e-04
9.300896929664848e-05 1.014035384009349e-04 -2.994916439043038e-04
9.300896929709257e-05 1.014035384009349e-04 -2.994916439060802e-04
3.188192118563915e-05 -4.801656472319671e-05 -4.232899785350241e-06
3.188192118552813e-05 -4.801656472308569e-05 -4.232899780021171e-06
-5.370078094202313e-06 -1.144686564746866e-05 -9.479281814606111e-06
-5.370078094202313e-06 -1.144686564746866e-05 -9.479281814606111e-06
7.192557132995603e-06 8.651285797578456e-05 -2.055764240438407e-05
7.192557133273159e-06 8.651285797589559e-05 -2.055764240260771e-05
5.072711902975868e-05 7.894823180976118e-05 -3.672092551809669e-06
5.072711902953664e-05 7.894823180976118e-05 -3.672092555362383e-06
1.374858006632707e-14 -1.110223024625157e-16 0.000000000000000e+00
-1.265048688644244e-04 -1.116808605105213e-03 -4.474716597293593e-04
1.032886269125566e-06 -1.987809354437875e-04 -4.624677294984281e-05
1.032886266461031e-06 -1.987809354406789e-04 -4.624677291253931e-05
-1.338295282226065e-04 8.698645801330507e-06 -3.982710511252208e-05
2.763801443106395e-04 4.790860700254473e-05 1.133383635583129e-04
-1.056776860252073e-04 -8.338812669128615e-05 -1.008663846366886e-04
-1.338295282125035e-04 8.698645788562942e-06 -3.982710523864341e-05
2.763801442405844e-04 4.790860687686749e-05 1.133383630431695e-04
-1.056776860252073e-04 -8.338812669128615e-05 -1.008663846366886e-04
-8.031701339561437e-06 -1.036705577941444e-04 4.461875818329020e-05
-8.031701338895303e-06 -1.036705577932562e-04 4.461875818506655e-05
3.740782341132842e-05 -5.610037663861256e-05 9.340134615953843e-06
2.521815850617837e-03 4.598094463533431e-03 -6.546127209361430e-04
-2.181579490744934e-03 -2.901097268632857e-03 1.873770041953549e-04
4.916705003952471e-03 7.308715247997033e-03 -7.294134117898921e-04
2.361317354729442e-03 3.370908974272280e-03 -2.360667082648149e-04
-2.181579485241336e-03 -2.901097273481867e-03 1.873770045026646e-04
4.916705004004651e-03 7.308715247304254e-03 -7.294134276314423e-04
-2.021138917129850e-03 1.603925254142713e-03 -1.754772047437569e-04
2.521815850648812e-03 4.598094463501012e-03 -6.546127209290376e-04
-1.009261422957930e-03 -1.940451303422686e-03 3.917575067688972e-04
0.000000000000000e+00 0.000000000000000e+00 0.000000000000000e+00
2.361317354729442e-03 3.370908974272280e-03 -2.360667082648149e-04
-2.558309644892565e-03 -3.371619742033927e-03 2.574585423591458e-04
-2.558309642696988e-03 -3.371619742935095e-03 2.574585424319764e-04
3.192291551562865e-03 7.509619380790977e-03 -5.096344599593294e-04
3.192291552427229e-03 7.509619380571819e-03 -5.096344592381286e-04
-1.009261422959845e-03 -1.940451303422241e-03 3.917575067724499e-04
-4.424585228746114e-05 -1.522774946521310e-04 -1.638291862953167e-04
3.388949104894401e-04 -1.470362147736770e-03 2.413948091373186e-04
4.817255652504460e-04 -3.080126523162752e-03 -2.769689933401764e-04
-4.424585228735012e-05 -1.522774946522421e-04 -1.638291863024222e-04
-6.346691680355482e-04 1.256133037533580e-03 1.924160456034940e-04
4.817255652505570e-04 -3.080126523162696e-03 -2.769689933401764e-04
-1.482150218743428e-04 1.045694909501071e-03 -1.058413589980489e-04
-1.488555458273311e-04 -4.794264950445659e-04 6.622158327473926e-06
3.388949104894401e-04 -1.470362147736770e-03 2.413948091337659e-04
-1.482150218743428e-04 1.045694909501405e-03 -1.058413589909435e-04
9.172593430295528e-05 -3.574705743464301e-05 -1.109009547661799e-05
2.217481324235937e-04 -2.129467672078111e-03 3.578372071260105e-04
2.217481324235937e-04 -2.129467672078778e-03 3.578372071189051e-04
5.035140711528996e-04 -2.637385590525843e-03 3.025931402760307e-04
5.035140711533437e-04 -2.637385590525509e-03 3.025931402760307e-04
5.569870400510268e-04 -2.905787588006414e-03 3.143589776115618e-04
-1.488555458273311e-04 -4.794264950445659e-04 6.622158327473926e-06
-4.029611200428995e-05 -2.144388670557440e-03 1.785309001931523e-04
-4.029611200406791e-05 -2.144388670557162e-03 1.785309001967050e-04
9.172593430295528e-05 -3.574705743475404e-05 -1.109009547306528e-05
-1.296309645208993e-04 1.484004582238407e-04 5.144970952741801e-05
-8.828258598414518e-05 -7.796616832700387e-06 -3.568487279892452e-06
-1.206491044659641e-04 7.196254652230838e-05 3.621081934923609e-05
-4.493566141727801e-05 -6.440639965776818e-05 6.685976935827398e-05
-8.828258599768990e-05 -7.796616823374514e-06 -3.568487283445165e-06
-1.206491044660751e-04 7.196254652230838e-05 3.621081933502523e-05
-2.205279075726319e-03 -6.349117049297970e-05 -2.408008224925595e-04
-1.296309577627497e-04 1.484004522971372e-04 5.144970988624209e-05
-1.205448668817888e-04 5.279157349469266e-05 5.422579588909571e-05
-1.474460626889467e-11 5.440092820663267e-14 -1.563194018672220e-13
-4.493566141727801e-05 -6.440639965776818e-05 6.685976935827398e-05
6.755283838089099e-06 -8.530481734181361e-05 -2.475752042485624e-05
6.755283852077909e-06 -8.530481734780881e-05 -2.475752042130352e-05
-1.458052459610837e-04 -1.743473400850348e-05 3.645106773575435e-05
-1.458052459653580e-04 -1.743473400683815e-05 3.645106773575435e-05
-1.205448668818165e-04 5.279157349480368e-05 5.422579589620113e-05
-5.045980723750176e-05 -8.588351251004323e-05 -1.254316012904155e-04
-3.439825541884378e-05 -1.435627679805540e-04 -6.542941809328795e-05
-4.740072170744680e-05 -1.071519334095439e-04 -1.174796103065034e-04
-5.045981349127704e-05 -8.588350688037982e-05 -1.254315353484969e-04
6.314026789674965e-06 -1.324556620382278e-03 -4.012271331248485e-04
-4.740073075065743e-05 -1.071519239531082e-04 -1.174794901395160e-04
1.662906522138519e-04 3.330864174599935e-05 7.899967236824068e-05
-6.882614000736087e-05 -1.398206823501891e-04 -1.915217007493197e-04
-3.439825541873276e-05 -1.435627679805540e-04 -6.542941809328795e-05
1.662906522141849e-04 3.330864174555526e-05 7.899967236468797e-05
1.073567500142758e-04 -3.675332871333481e-05 1.032441955324259e-04
-1.181922439357219e-04 -1.392432597911997e-04 5.895126011523644e-05
-1.181922350044218e-04 -1.392432633428031e-04 5.895121801557934e-05