<?xml version="1.0" ?> 
<!-- 
# vtk DataFile Version 3.0
-->
<VTKFile type="UnstructuredGrid" version="0.1" compressor="vtkZLibDataCompressor" byte_order="LittleEndian">
  <UnstructuredGrid>
    <FieldData>
      <DataArray type="Float64" Name="TIME" NumberOfTuples="1" format="ascii">
4.000000000000003e-01 
      </DataArray>
    </FieldData>

    <Piece NumberOfPoints="6" NumberOfCells="0" >
      <Points>
        <DataArray type="Float64" NumberOfComponents="3" format="ascii">
2.499436320569199e-01 -2.000000000000000e-01 -2.000000000000000e-01
2.499436320569199e-01 0.000000000000000e+00 -2.000000000000000e-01
2.499436320569199e-01 2.000000000000000e-01 -2.000000000000000e-01
2.499436320569199e-01 -2.000000000000000e-01 0.000000000000000e+00
2.499436320569199e-01 0.000000000000000e+00 0.000000000000000e+00
2.499436320569199e-01 2.000000000000000e-01 0.000000000000000e+00
        </DataArray>
      </Points>

      <Cells>
        <DataArray type="Int32" Name="connectivity" format="ascii">

        </DataArray>
        <DataArray type="Int32" Name="offsets" format="ascii">

        </DataArray>
        <DataArray type="UInt8" Name="types" format="ascii">

        </DataArray>
      </Cells>

  <PointData>
        <DataArray type="Float64" Name="acceleration" NumberOfComponents="3" format="ascii">
0.000000000000000e+00 0.000000000000000e+00 0.000000000000000e+00
0.000000000000000e+00 0.000000000000000e+00 0.000000000000000e+00
0.000000000000000e+00 0.000000000000000e+00 0.000000000000000e+00
0.000000000000000e+00 0.000000000000000e+00 0.000000000000000e+00
0.000000000000000e+00 0.000000000000000e+00 0.000000000000000e+00
0.000000000000000e+00 0.000000000000000e+00 0.000000000000000e+00
        </DataArray>
        <DataArray type="Int32" Name="globalid" format="ascii">
18
21
24
19
22
25
        </DataArray>
        <DataArray type="Int32" Name="owner" format="ascii">
0
0
0
0
0
0
        </DataArray>
        <DataArray type="Float64" Name="velocity" NumberOfComponents="3" format="ascii">
4.846203301348982e-01 0.000000000000000e+00 0.000000000000000e+00
4.846203301348982e-01 0.000000000000000e+00 0.000000000000000e+00
4.846203301348982e-01 0.000000000000000e+00 0.000000000000000e+00
4.846203301348982e-01 0.000000000000000e+00 0.000000000000000e+00
4.846203301348982e-01 0.000000000000000e+00 0.000000000000000e+00
4.846203301348982e-01 0.000000000000000e+00 0.000000000000000e+00
        </DataArray>
      </PointData>

    </Piece>
  </UnstructuredGrid>
</VTKFile>
