<?xml version="1.0" ?> 
<!-- 
# vtk DataFile Version 3.0
-->
<VTKFile type="UnstructuredGrid" version="0.1" compressor="vtkZLibDataCompressor" byte_order="LittleEndian">
  <UnstructuredGrid>
    <FieldData>
      <DataArray type="Float64" Name="TIME" NumberOfTuples="1" format="ascii">
4.000000000000003e-01 
      </DataArray>
    </FieldData>

    <Piece NumberOfPoints="64" NumberOfCells="16" >
      <Points>
        <DataArray type="Float64" NumberOfComponents="3" format="ascii">
1.333333333333333e-01 -2.500000000000000e-01 4.020306624191591e-17
1.333333333333334e-01 -1.767766952966369e-01 1.767766952966369e-01
0.000000000000000e+00 -1.767766952966369e-01 1.767766952966369e-01
0.000000000000000e+00 -2.500000000000000e-01 -1.530808498934191e-17
1.333333333333334e-01 -1.767766952966369e-01 1.767766952966369e-01
1.333333333333334e-01 1.416384724411995e-16 2.500000000000000e-01
5.551115123125783e-17 -3.061616997868382e-17 2.500000000000000e-01
0.000000000000000e+00 -1.767766952966369e-01 1.767766952966369e-01
1.333333333333334e-01 1.416384724411995e-16 2.500000000000000e-01
1.333333333333334e-01 1.767766952966369e-01 1.767766952966369e-01
0.000000000000000e+00 1.767766952966368e-01 1.767766952966369e-01
5.551115123125783e-17 -3.061616997868382e-17 2.500000000000000e-01
1.333333333333334e-01 1.767766952966369e-01 1.767766952966369e-01
1.333333333333333e-01 2.500000000000000e-01 -1.530808498934191e-17
0.000000000000000e+00 2.500000000000000e-01 -1.530808498934191e-17
0.000000000000000e+00 1.767766952966368e-01 1.767766952966369e-01
0.000000000000000e+00 -2.500000000000000e-01 -1.530808498934191e-17
0.000000000000000e+00 -1.767766952966369e-01 1.767766952966369e-01
-1.333333333333334e-01 -1.767766952966369e-01 1.767766952966369e-01
-1.333333333333333e-01 -2.500000000000000e-01 -1.530808498934191e-17
0.000000000000000e+00 -1.767766952966369e-01 1.767766952966369e-01
5.551115123125783e-17 -3.061616997868382e-17 2.500000000000000e-01
-1.333333333333334e-01 -3.061616997868382e-17 2.500000000000000e-01
-1.333333333333334e-01 -1.767766952966369e-01 1.767766952966369e-01
5.551115123125783e-17 -3.061616997868382e-17 2.500000000000000e-01
0.000000000000000e+00 1.767766952966368e-01 1.767766952966369e-01
-1.333333333333334e-01 1.767766952966369e-01 1.767766952966369e-01
-1.333333333333334e-01 -3.061616997868382e-17 2.500000000000000e-01
0.000000000000000e+00 1.767766952966368e-01 1.767766952966369e-01
0.000000000000000e+00 2.500000000000000e-01 -1.530808498934191e-17
-1.333333333333334e-01 2.500000000000000e-01 -1.530808498934191e-17
-1.333333333333334e-01 1.767766952966369e-01 1.767766952966369e-01
-1.333333333333333e-01 -2.500000000000000e-01 -1.530808498934191e-17
-1.333333333333334e-01 -1.767766952966369e-01 1.767766952966369e-01
-2.666666666666667e-01 -1.767766952966368e-01 1.767766952966369e-01
-2.666666666666667e-01 -2.500000000000000e-01 4.020306624191591e-17
-1.333333333333334e-01 -1.767766952966369e-01 1.767766952966369e-01
-1.333333333333334e-01 -3.061616997868382e-17 2.500000000000000e-01
-2.666666666666667e-01 1.416384724411995e-16 2.500000000000000e-01
-2.666666666666667e-01 -1.767766952966368e-01 1.767766952966369e-01
-1.333333333333334e-01 -3.061616997868382e-17 2.500000000000000e-01
-1.333333333333334e-01 1.767766952966369e-01 1.767766952966369e-01
-2.666666666666667e-01 1.767766952966368e-01 1.767766952966369e-01
-2.666666666666667e-01 1.416384724411995e-16 2.500000000000000e-01
-1.333333333333334e-01 1.767766952966369e-01 1.767766952966369e-01
-1.333333333333334e-01 2.500000000000000e-01 -1.530808498934191e-17
-2.666666666666667e-01 2.500000000000000e-01 -2.373526899143732e-16
-2.666666666666667e-01 1.767766952966368e-01 1.767766952966369e-01
-2.666666666666667e-01 -2.500000000000000e-01 4.020306624191591e-17
-2.666666666666667e-01 -1.767766952966368e-01 1.767766952966369e-01
-4.000000000000000e-01 -1.767766952966369e-01 1.767766952966369e-01
-4.000000000000000e-01 -2.500000000000000e-01 4.592425496802574e-17
-2.666666666666667e-01 -1.767766952966368e-01 1.767766952966369e-01
-2.666666666666667e-01 1.416384724411995e-16 2.500000000000000e-01
-4.000000000000000e-01 3.061616997868382e-17 2.500000000000000e-01
-4.000000000000000e-01 -1.767766952966369e-01 1.767766952966369e-01
-2.666666666666667e-01 1.416384724411995e-16 2.500000000000000e-01
-2.666666666666667e-01 1.767766952966368e-01 1.767766952966369e-01
-4.000000000000000e-01 1.767766952966369e-01 1.767766952966369e-01
-4.000000000000000e-01 3.061616997868382e-17 2.500000000000000e-01
-2.666666666666667e-01 1.767766952966368e-01 1.767766952966369e-01
-2.666666666666667e-01 2.500000000000000e-01 -2.373526899143732e-16
-4.000000000000000e-01 2.500000000000000e-01 -1.530808498934191e-17
-4.000000000000000e-01 1.767766952966369e-01 1.767766952966369e-01
        </DataArray>
      </Points>

      <Cells>
        <DataArray type="Int32" Name="connectivity" format="ascii">
0 1 2 3 4 5 6 7 8 9 10 11 12 13 14 15 16 17 18 19 20 21 22 23 24 25 26 27 28 29 30 31 32 33 34 35 36 37 38 39 40 41 42 43 44 45 46 47 48 49 50 51 52 53 54 55 56 57 58 59 60 61 62 63 
        </DataArray>
        <DataArray type="Int32" Name="offsets" format="ascii">
4 8 12 16 20 24 28 32 36 40 44 48 52 56 60 64 
        </DataArray>
        <DataArray type="UInt8" Name="types" format="ascii">
9 9 9 9 9 9 9 9 9 9 9 9 9 9 9 9 
        </DataArray>
      </Cells>

  <PointData>
        <DataArray type="Float64" Name="owner" format="ascii">
1.000000000000000e+00
1.000000000000000e+00
1.000000000000000e+00
1.000000000000000e+00
1.000000000000000e+00
1.000000000000000e+00
1.000000000000000e+00
1.000000000000000e+00
1.000000000000000e+00
1.000000000000000e+00
1.000000000000000e+00
1.000000000000000e+00
1.000000000000000e+00
1.000000000000000e+00
1.000000000000000e+00
1.000000000000000e+00
1.000000000000000e+00
1.000000000000000e+00
1.000000000000000e+00
1.000000000000000e+00
1.000000000000000e+00
1.000000000000000e+00
1.000000000000000e+00
1.000000000000000e+00
1.000000000000000e+00
1.000000000000000e+00
1.000000000000000e+00
1.000000000000000e+00
1.000000000000000e+00
1.000000000000000e+00
1.000000000000000e+00
1.000000000000000e+00
1.000000000000000e+00
1.000000000000000e+00
1.000000000000000e+00
1.000000000000000e+00
1.000000000000000e+00
1.000000000000000e+00
1.000000000000000e+00
1.000000000000000e+00
1.000000000000000e+00
1.000000000000000e+00
1.000000000000000e+00
1.000000000000000e+00
1.000000000000000e+00
1.000000000000000e+00
0.000000000000000e+00
1.000000000000000e+00
1.000000000000000e+00
1.000000000000000e+00
1.000000000000000e+00
1.000000000000000e+00
1.000000000000000e+00
1.000000000000000e+00
1.000000000000000e+00
1.000000000000000e+00
1.000000000000000e+00
1.000000000000000e+00
1.000000000000000e+00
1.000000000000000e+00
1.000000000000000e+00
0.000000000000000e+00
1.000000000000000e+00
1.000000000000000e+00
        </DataArray>
  </PointData>
  <CellData>
        <DataArray type="Float64" Name="id" format="ascii">
1.900000000000000e+01
2.000000000000000e+01
2.100000000000000e+01
2.200000000000000e+01
2.700000000000000e+01
2.800000000000000e+01
2.900000000000000e+01
3.000000000000000e+01
3.500000000000000e+01
3.600000000000000e+01
3.700000000000000e+01
3.800000000000000e+01
4.300000000000000e+01
4.400000000000000e+01
4.500000000000000e+01
4.600000000000000e+01
        </DataArray>
        <DataArray type="Float64" Name="owner" format="ascii">
1.000000000000000e+00
1.000000000000000e+00
1.000000000000000e+00
1.000000000000000e+00
1.000000000000000e+00
1.000000000000000e+00
1.000000000000000e+00
1.000000000000000e+00
1.000000000000000e+00
1.000000000000000e+00
1.000000000000000e+00
1.000000000000000e+00
1.000000000000000e+00
1.000000000000000e+00
1.000000000000000e+00
1.000000000000000e+00
        </DataArray>
      </CellData>

    </Piece>
  </UnstructuredGrid>
</VTKFile>
