<?xml version="1.0" ?> 
<!-- 
# vtk DataFile Version 3.0
-->
<VTKFile type="UnstructuredGrid" version="0.1" compressor="vtkZLibDataCompressor" byte_order="LittleEndian">
  <UnstructuredGrid>
    <FieldData>
      <DataArray type="Float64" Name="TIME" NumberOfTuples="1" format="ascii">
4.000000000000003e-01 
      </DataArray>
    </FieldData>

    <Piece NumberOfPoints="56" NumberOfCells="14" >
      <Points>
        <DataArray type="Float64" NumberOfComponents="3" format="ascii">
4.000000000000000e-01 0.000000000000000e+00 -2.500000000000000e-01
4.000000000000000e-01 -1.767766952966369e-01 -1.767766952966369e-01
2.666666666666665e-01 -1.767766952966369e-01 -1.767766952966369e-01
2.666666666666666e-01 0.000000000000000e+00 -2.500000000000000e-01
4.000000000000000e-01 1.767766952966369e-01 -1.767766952966368e-01
4.000000000000000e-01 0.000000000000000e+00 -2.500000000000000e-01
2.666666666666666e-01 0.000000000000000e+00 -2.500000000000000e-01
2.666666666666666e-01 1.767766952966370e-01 -1.767766952966367e-01
4.000000000000000e-01 -1.767766952966369e-01 -1.767766952966369e-01
4.000000000000000e-01 -2.500000000000000e-01 -1.530808498934191e-17
2.666666666666666e-01 -2.500000000000000e-01 -1.530808498934191e-17
2.666666666666665e-01 -1.767766952966369e-01 -1.767766952966369e-01
2.666666666666665e-01 -1.767766952966369e-01 -1.767766952966369e-01
2.666666666666666e-01 -2.500000000000000e-01 -1.530808498934191e-17
1.333333333333333e-01 -2.500000000000000e-01 4.020306624191591e-17
1.333333333333334e-01 -1.767766952966369e-01 -1.767766952966369e-01
4.000000000000000e-01 -2.500000000000000e-01 -1.530808498934191e-17
4.000000000000000e-01 -1.767766952966369e-01 1.767766952966369e-01
2.666666666666666e-01 -1.767766952966370e-01 1.767766952966368e-01
2.666666666666666e-01 -2.500000000000000e-01 -1.530808498934191e-17
2.666666666666666e-01 -2.500000000000000e-01 -1.530808498934191e-17
2.666666666666666e-01 -1.767766952966370e-01 1.767766952966368e-01
1.333333333333334e-01 -1.767766952966369e-01 1.767766952966369e-01
1.333333333333333e-01 -2.500000000000000e-01 4.020306624191591e-17
4.000000000000000e-01 -1.767766952966369e-01 1.767766952966369e-01
4.000000000000000e-01 -3.061616997868382e-17 2.500000000000000e-01
2.666666666666667e-01 -3.061616997868382e-17 2.500000000000000e-01
2.666666666666666e-01 -1.767766952966370e-01 1.767766952966368e-01
2.666666666666666e-01 -1.767766952966370e-01 1.767766952966368e-01
2.666666666666667e-01 -3.061616997868382e-17 2.500000000000000e-01
1.333333333333334e-01 1.416384724411995e-16 2.500000000000000e-01
1.333333333333334e-01 -1.767766952966369e-01 1.767766952966369e-01
4.000000000000000e-01 -3.061616997868382e-17 2.500000000000000e-01
4.000000000000000e-01 1.767766952966369e-01 1.767766952966369e-01
2.666666666666666e-01 1.767766952966370e-01 1.767766952966367e-01
2.666666666666667e-01 -3.061616997868382e-17 2.500000000000000e-01
2.666666666666667e-01 -3.061616997868382e-17 2.500000000000000e-01
2.666666666666666e-01 1.767766952966370e-01 1.767766952966367e-01
1.333333333333334e-01 1.767766952966369e-01 1.767766952966369e-01
1.333333333333334e-01 1.416384724411995e-16 2.500000000000000e-01
4.000000000000000e-01 1.767766952966369e-01 1.767766952966369e-01
4.000000000000000e-01 2.500000000000000e-01 4.592425496802574e-17
2.666666666666665e-01 2.500000000000000e-01 2.067365199356894e-16
2.666666666666666e-01 1.767766952966370e-01 1.767766952966367e-01
2.666666666666666e-01 1.767766952966370e-01 1.767766952966367e-01
2.666666666666665e-01 2.500000000000000e-01 2.067365199356894e-16
1.333333333333333e-01 2.500000000000000e-01 -1.530808498934191e-17
1.333333333333334e-01 1.767766952966369e-01 1.767766952966369e-01
4.000000000000000e-01 2.500000000000000e-01 4.592425496802574e-17
4.000000000000000e-01 1.767766952966369e-01 -1.767766952966368e-01
2.666666666666666e-01 1.767766952966370e-01 -1.767766952966367e-01
2.666666666666665e-01 2.500000000000000e-01 2.067365199356894e-16
2.666666666666665e-01 2.500000000000000e-01 2.067365199356894e-16
2.666666666666666e-01 1.767766952966370e-01 -1.767766952966367e-01
1.333333333333334e-01 1.767766952966367e-01 -1.767766952966370e-01
1.333333333333333e-01 2.500000000000000e-01 -1.530808498934191e-17
        </DataArray>
      </Points>

      <Cells>
        <DataArray type="Int32" Name="connectivity" format="ascii">
0 1 2 3 4 5 6 7 8 9 10 11 12 13 14 15 16 17 18 19 20 21 22 23 24 25 26 27 28 29 30 31 32 33 34 35 36 37 38 39 40 41 42 43 44 45 46 47 48 49 50 51 52 53 54 55 
        </DataArray>
        <DataArray type="Int32" Name="offsets" format="ascii">
4 8 12 16 20 24 28 32 36 40 44 48 52 56 
        </DataArray>
        <DataArray type="UInt8" Name="types" format="ascii">
9 9 9 9 9 9 9 9 9 9 9 9 9 9 
        </DataArray>
      </Cells>

  <PointData>
        <DataArray type="Float64" Name="owner" format="ascii">
2.000000000000000e+00
2.000000000000000e+00
2.000000000000000e+00
2.000000000000000e+00
2.000000000000000e+00
2.000000000000000e+00
2.000000000000000e+00
2.000000000000000e+00
2.000000000000000e+00
2.000000000000000e+00
2.000000000000000e+00
2.000000000000000e+00
2.000000000000000e+00
2.000000000000000e+00
1.000000000000000e+00
0.000000000000000e+00
2.000000000000000e+00
2.000000000000000e+00
2.000000000000000e+00
2.000000000000000e+00
2.000000000000000e+00
2.000000000000000e+00
1.000000000000000e+00
1.000000000000000e+00
2.000000000000000e+00
2.000000000000000e+00
2.000000000000000e+00
2.000000000000000e+00
2.000000000000000e+00
2.000000000000000e+00
1.000000000000000e+00
1.000000000000000e+00
2.000000000000000e+00
2.000000000000000e+00
2.000000000000000e+00
2.000000000000000e+00
2.000000000000000e+00
2.000000000000000e+00
1.000000000000000e+00
1.000000000000000e+00
2.000000000000000e+00
2.000000000000000e+00
2.000000000000000e+00
2.000000000000000e+00
2.000000000000000e+00
2.000000000000000e+00
1.000000000000000e+00
1.000000000000000e+00
2.000000000000000e+00
2.000000000000000e+00
2.000000000000000e+00
2.000000000000000e+00
2.000000000000000e+00
2.000000000000000e+00
0.000000000000000e+00
1.000000000000000e+00
        </DataArray>
  </PointData>
  <CellData>
        <DataArray type="Float64" Name="id" format="ascii">
0.000000000000000e+00
1.000000000000000e+00
2.000000000000000e+00
4.000000000000000e+00
6.000000000000000e+00
7.000000000000000e+00
8.000000000000000e+00
9.000000000000000e+00
1.000000000000000e+01
1.100000000000000e+01
1.200000000000000e+01
1.300000000000000e+01
1.400000000000000e+01
1.500000000000000e+01
        </DataArray>
        <DataArray type="Float64" Name="owner" format="ascii">
2.000000000000000e+00
2.000000000000000e+00
2.000000000000000e+00
2.000000000000000e+00
2.000000000000000e+00
2.000000000000000e+00
2.000000000000000e+00
2.000000000000000e+00
2.000000000000000e+00
2.000000000000000e+00
2.000000000000000e+00
2.000000000000000e+00
2.000000000000000e+00
2.000000000000000e+00
        </DataArray>
      </CellData>

    </Piece>
  </UnstructuredGrid>
</VTKFile>
