<?xml version="1.0" ?> 
<!-- 
# vtk DataFile Version 3.0
-->
<VTKFile type="UnstructuredGrid" version="0.1" compressor="vtkZLibDataCompressor" byte_order="LittleEndian">
  <UnstructuredGrid>
    <FieldData>
      <DataArray type="Float64" Name="TIME" NumberOfTuples="1" format="ascii">
1.000000000000000e-03 
      </DataArray>
    </FieldData>

    <Piece NumberOfPoints="306" NumberOfCells="51" >
      <Points>
        <DataArray type="Float64" NumberOfComponents="3" format="ascii">
3.723422070124918e-01 -1.889921380501920e-01 3.300784692218214e-01
3.691932177457636e-01 -1.591478675696978e-01 3.298225388563319e-01
3.660426255244076e-01 -1.292884052268557e-01 3.295664782126074e-01
3.628914989848426e-01 -9.942387892989754e-02 3.293103741428045e-01
3.597409067634867e-01 -6.956441658705535e-02 3.290543134990799e-01
3.565919174967585e-01 -3.972014610656123e-02 3.287983831335904e-01
2.746964204005226e-01 -1.787323346413049e-01 2.805298853475544e-01
2.692120059607218e-01 -1.753667467845886e-01 3.098284279104793e-01
2.637283907697860e-01 -1.720016493981503e-01 3.391227007692920e-01
2.582450419951386e-01 -1.686367155018045e-01 3.684155503934003e-01
2.527614268042028e-01 -1.652716181153661e-01 3.977098232522129e-01
2.472770123644021e-01 -1.619060302586499e-01 4.270083658151380e-01
1.934558371716191e-01 -2.953017464124785e-01 2.415446517089096e-01
2.035909206655215e-01 -2.693980624916466e-01 2.528008567153000e-01
2.137293000905806e-01 -2.434859546876806e-01 2.640607222417846e-01
2.238687781593586e-01 -2.175710389226699e-01 2.753218079416339e-01
2.340071575844177e-01 -1.916589311187039e-01 2.865816734681186e-01
2.441422410783202e-01 -1.657552471978719e-01 2.978378784745089e-01
3.762241622385750e-03 -1.464188659345773e-01 3.394250214035929e-01
2.954529390450798e-02 -1.311350113665170e-01 3.407176008549192e-01
5.532899584378613e-02 -1.158507716902320e-01 3.420102128754496e-01
8.111291433544959e-02 -1.005664036445388e-01 3.433028357523812e-01
1.068966162747278e-01 -8.528216396825379e-02 3.445954477729117e-01
1.326796685568500e-01 -6.999830940019346e-02 3.458880272242380e-01
9.107473427701887e-02 -3.616818525321533e-01 3.457615044148828e-01
1.088762968591814e-01 -3.458403106408829e-01 3.639868150974503e-01
1.266780241634936e-01 -3.299986221640069e-01 3.822122944232107e-01
1.444798063751888e-01 -3.141568848252624e-01 4.004378299633686e-01
1.622815336795010e-01 -2.983151963483863e-01 4.186633092891289e-01
1.800830962616635e-01 -2.824736544571160e-01 4.368886199716965e-01
2.899457911282239e-01 -4.247104591979123e-01 -3.708798294953614e-02
3.032395835096530e-01 -4.189368071799639e-01 -1.082247759747110e-02
3.165327290107540e-01 -4.131634361098296e-01 1.544174966642848e-02
3.298256588850791e-01 -4.073901586889667e-01 4.170555090093958e-02
3.431188043861801e-01 -4.016167876188323e-01 6.796977816483916e-02
3.564125967676091e-01 -3.958431356008840e-01 9.423528351690420e-02
3.508825880421682e-01 -3.986021878754028e-01 -2.559593147877375e-01
3.476660556972967e-01 -3.775775792524068e-01 -2.347950023424895e-01
3.444487605638127e-01 -3.565479847221292e-01 -2.136256708597212e-01
3.412312111674579e-01 -3.355167282227577e-01 -1.924546663644460e-01
3.380139160339740e-01 -3.144871336924802e-01 -1.712853348816777e-01
3.347973836891025e-01 -2.934625250694841e-01 -1.501210224364297e-01
3.295889157385657e-01 -2.930996917920353e-01 -4.136750058422901e-01
3.178902696493537e-01 -2.853351988601995e-01 -3.871655872312728e-01
3.061925690203787e-01 -2.775713334385280e-01 -3.606583110563129e-01
2.944951835448160e-01 -2.698076771869110e-01 -3.341517490267055e-01
2.827974829158411e-01 -2.620438117652394e-01 -3.076444728517456e-01
2.710988368266291e-01 -2.542793188334037e-01 -2.811350542407283e-01
1.889602222389703e-01 -1.983127727608663e-01 3.209484582791106e-01
1.954462688339960e-01 -1.752955985261885e-01 3.390718229739558e-01
2.019338889196899e-01 -1.522728404110472e-01 3.571995843293564e-01
2.084220335022731e-01 -1.292482210024181e-01 3.753288112382754e-01
2.149096535879671e-01 -1.062254628872768e-01 3.934565725936760e-01
2.213957001829927e-01 -8.320828865259906e-02 4.115799372885213e-01
2.352945790562404e-01 -3.067324786913055e-01 4.390818861797453e-01
2.435104370221079e-01 -2.838679379378097e-01 4.214747477524939e-01
2.517281833407402e-01 -2.609981419426914e-01 4.038635624577496e-01
2.599465591102941e-01 -2.381265942003654e-01 3.862510282071742e-01
2.681643054289263e-01 -2.152567982052471e-01 3.686398429124298e-01
2.763801633947938e-01 -1.923922574517513e-01 3.510327044851785e-01
3.374210905656115e-01 -3.557286437254202e-02 -3.348392426401839e-01
3.488439907685098e-01 -1.482320542960942e-02 -3.532565097036240e-01
3.602688827609890e-01 5.930071592248318e-03 -3.716769881512129e-01
3.716944386833285e-01 2.668455464041444e-02 -3.900985370601847e-01
3.831193306758076e-01 4.743783166227219e-02 -4.085190155077735e-01
3.945422308787060e-01 6.818749060520478e-02 -4.269362825712137e-01
2.143771529180745e-01 -2.109290341325738e-01 -4.557954876489154e-01
2.127899271852959e-01 -1.811057421229456e-01 -4.587436728183478e-01
2.112019206758274e-01 -1.512677796535702e-01 -4.616933082378681e-01
2.096136539074620e-01 -1.214249270309457e-01 -4.646434270740842e-01
2.080256473979934e-01 -9.158696456157019e-02 -4.675930624936044e-01
2.064384216652148e-01 -6.176367255194205e-02 -4.705412476630369e-01
3.195327489844554e-01 -2.370519482298566e-01 3.150887134720406e-01
3.075777683634265e-01 -2.222423492386750e-01 2.918981090925174e-01
2.956223287324160e-01 -2.074321816347976e-01 2.687066143126475e-01
2.836667360980785e-01 -1.926218244933550e-01 2.455148227326623e-01
2.717112964670681e-01 -1.778116568894776e-01 2.223233279527925e-01
2.597563158460392e-01 -1.630020578982961e-01 1.991327235732692e-01
2.389198063720234e-01 -3.218057592618847e-01 1.030052378756054e-01
2.244412322634006e-01 -3.088720422084643e-01 1.258763697061468e-01
2.099626713385815e-01 -2.959383369321419e-01 1.487474807108451e-01
1.954841148083637e-01 -2.830046355815191e-01 1.716185847735956e-01
1.810055538835446e-01 -2.700709303051967e-01 1.944896957782939e-01
1.665269797749218e-01 -2.571372132517763e-01 2.173608276088353e-01
3.811711435938521e-01 -4.659099158759646e-02 3.326906056643739e-01
3.926702824867513e-01 -2.581856515761917e-02 3.143470203507303e-01
4.041712876026008e-01 -5.042767520519412e-03 2.960004580124396e-01
4.156729147927670e-01 1.573415385228783e-02 2.776529033326000e-01
4.271739199086165e-01 3.650995148938760e-02 2.593063409943093e-01
4.386730588015157e-01 5.728237791936487e-02 2.409627556806657e-01
4.486552106882307e-01 -3.852645740192459e-01 2.711082860145684e-01
4.422884561322983e-01 -3.570794312800435e-01 2.792083660622646e-01
4.359190134326071e-01 -3.288823883309490e-01 2.873118660909632e-01
4.295486746849961e-01 -3.006813786452236e-01 2.954165061133290e-01
4.231792319853049e-01 -2.724843356961290e-01 3.035200061420275e-01
4.168124774293726e-01 -2.442991929569267e-01 3.116200861897238e-01
2.734959149698680e-01 -1.138872469853718e-02 -3.001003711061651e-01
2.744633313664139e-01 9.747850544182652e-04 -3.274163195286538e-01
2.754307130135802e-01 1.333785071288123e-02 -3.547312867684125e-01
2.763980830776200e-01 2.570076833984669e-02 -3.820459269472612e-01
2.773654647247863e-01 3.806383399830967e-02 -4.093608941870201e-01
2.783328811213323e-01 5.042734375126511e-02 -4.366768426095088e-01
2.841932491943163e-01 -4.312060118736285e-02 -2.930421291301283e-01
3.072858293754950e-01 -3.793745214391839e-02 -2.746114316055989e-01
3.303752632553758e-01 -3.275500929044641e-02 -2.561832452135235e-01
3.534636483681574e-01 -2.757280183363191e-02 -2.377558958655995e-01
3.765530822480382e-01 -2.239035898015993e-02 -2.193277094735241e-01
3.996456624292169e-01 -1.720720993671548e-02 -2.008970119489946e-01
3.858959154226349e-01 3.803879436418602e-01 -3.288359839633824e-01
4.000520149387864e-01 4.012511851926587e-01 -3.451011343153191e-01
4.142105653686232e-01 4.221180388969445e-01 -3.613691007310694e-01
4.283699327696884e-01 4.429860966523929e-01 -3.776380058347577e-01
4.425284831995252e-01 4.638529503566788e-01 -3.939059722505082e-01
4.566845827156767e-01 4.847161919074772e-01 -4.101711226024448e-01
4.593544097775660e-01 -3.567238851979596e-01 -3.961282051919113e-01
4.614878300762517e-01 -3.481871612982281e-01 -3.674486147396063e-01
4.636211618268258e-01 -3.396507917172312e-01 -3.387702146404530e-01
4.657544640613626e-01 -3.311145402424794e-01 -3.100922113256839e-01
4.678877958119367e-01 -3.225781706614825e-01 -2.814138112265309e-01
4.700212161106224e-01 -3.140414467617510e-01 -2.527342207742259e-01
4.393521561017538e-01 -1.780760767933674e-01 2.182624942711414e-01
4.392431328685349e-01 -1.607451878785556e-01 2.427515355642657e-01
4.391341025291720e-01 -1.434131693348677e-01 2.672421730552729e-01
4.390250698210944e-01 -1.260807742482211e-01 2.917333426122410e-01
4.389160394817316e-01 -1.087487557045331e-01 3.162239801032482e-01
4.388070162485126e-01 -9.141786678972134e-02 3.407130213963724e-01
8.174899409748171e-02 -2.106262319016868e-01 2.878531766277939e-01
8.522205013078935e-02 -1.997268420420384e-01 2.601209421947517e-01
8.869493422303182e-02 -1.888279917799904e-01 2.323900807052733e-01
9.216776100158591e-02 -1.779293213838092e-01 2.046596768636494e-01
9.564064509382840e-02 -1.670304711217612e-01 1.769288153741709e-01
9.911370112713602e-02 -1.561310812621127e-01 1.491965809411288e-01
1.180862404200708e-01 -2.160536228223803e-01 -1.824447861218195e-01
1.329103234218711e-01 -1.910487700150148e-01 -1.898885125891796e-01
1.477390250120389e-01 -1.660361267006549e-01 -1.973345582224855e-01
1.625692661316626e-01 -1.410208865506304e-01 -2.047813769111065e-01
1.773979677218305e-01 -1.160082432362705e-01 -2.122274225444124e-01
1.922220507236307e-01 -9.100339042890500e-02 -2.196711490117726e-01
1.380796594394296e-01 -2.235499266583490e-02 -2.236244117272721e-01
1.427783696775813e-01 -4.277476441444194e-03 -2.001457755250187e-01
1.474775165939864e-01 1.380171983083430e-02 -1.766649573176343e-01
1.521768090698093e-01 3.188147611907539e-02 -1.531834117752061e-01
1.568759559862145e-01 4.996067239135390e-02 -1.297025935678217e-01
1.615746662243661e-01 6.803818861574459e-02 -1.062239573655683e-01
1.724146158191074e-01 -7.982109154857431e-02 3.440108063169183e-01
1.785698958706280e-01 -6.603584074069575e-02 3.699350859094060e-01
1.847251232927995e-01 -5.225070780052974e-02 3.958591438421230e-01
1.908803331718544e-01 -3.846561414960126e-02 4.217831278882495e-01
1.970355605940258e-01 -2.468048120943526e-02 4.477071858209664e-01
2.031908406455465e-01 -1.089523040155670e-02 4.736314654134542e-01
2.982839377318191e-01 -3.808246777208942e-01 3.742853914219931e-01
2.844354397410694e-01 -3.643973025167581e-01 3.952239093995743e-01
2.705862910340888e-01 -3.479691554195485e-01 4.161634112407854e-01
2.567369254216978e-01 -3.315407510246478e-01 4.371032410365396e-01
2.428877767147172e-01 -3.151126039274382e-01 4.580427428777506e-01
2.290392787239675e-01 -2.986852287233021e-01 4.789812608553318e-01
-5.133662240267183e-02 -1.901239981987651e-01 1.142329291319767e-01
-4.064258948964060e-02 -1.789940158995195e-01 8.850931369594858e-02
-2.994902354108333e-02 -1.678645196008663e-01 6.278682150450446e-02
-1.925561324735071e-02 -1.567351853024105e-01 3.706470372792164e-02
-8.562047298793446e-03 -1.456056890037572e-01 1.134221153647748e-02
2.131985614237781e-03 -1.344757067045117e-01 -1.438140389955065e-02
1.745978704602665e-01 -2.234564804976281e-01 1.542877813755894e-01
1.893638844173128e-01 -2.166747278951574e-01 1.795034260091212e-01
2.041282633626225e-01 -2.098937262228384e-01 2.047162785638266e-01
2.188920973040201e-01 -2.031129748605700e-01 2.299282004255898e-01
2.336564762493299e-01 -1.963319731882509e-01 2.551410529802953e-01
2.484224902063762e-01 -1.895502205857803e-01 2.803566976138270e-01
2.524636158066181e-01 -1.870210931046135e-01 -1.881713528787705e-01
2.493530319282487e-01 -1.589029519391376e-01 -1.981849742555458e-01
2.462410652056298e-01 -1.307723105449789e-01 -2.082030472977571e-01
2.431286375349278e-01 -1.026375024079259e-01 -2.182226042284471e-01
2.400166708123090e-01 -7.450686101376715e-02 -2.282406772706585e-01
2.369060869339396e-01 -4.638871984829131e-02 -2.382542986474338e-01
3.404938250555655e-01 -3.945040875306488e-01 -2.681231559003586e-01
3.361983424936216e-01 -3.649341314882024e-01 -2.653258072711235e-01
3.319006848682480e-01 -3.353492023829920e-01 -2.625270421745614e-01
3.276023022217314e-01 -3.057592822568604e-01 -2.597278049222236e-01
3.233046445963578e-01 -2.761743531516502e-01 -2.569290398256615e-01
3.190091620344139e-01 -2.466043971092038e-01 -2.541316911964265e-01
2.771492359081810e-01 -2.970573094730262e-01 -2.696604730331120e-01
2.893020929547151e-01 -2.840817991366587e-01 -2.938243969774799e-01
3.014544921309120e-01 -2.711067776648659e-01 -3.179874105232507e-01
3.136067386836632e-01 -2.581319191479313e-01 -3.421501206028227e-01
3.257591378598600e-01 -2.451568976761386e-01 -3.663131341485936e-01
3.379119949063941e-01 -2.321813873397710e-01 -3.904770580929616e-01
2.915847376621569e-01 -4.577553677664130e-01 -4.943136551273548e-01
3.106397906828051e-01 -4.555390286971260e-01 -4.712507009236269e-01
3.296934813240996e-01 -4.533228480894601e-01 -4.481893956522114e-01
3.487467178389431e-01 -4.511067203023345e-01 -4.251286400248999e-01
3.678004084802378e-01 -4.488905396946685e-01 -4.020673347534844e-01
3.868554615008859e-01 -4.466742006253817e-01 -3.790043805497566e-01
2.915272848062052e-01 3.375633709449491e-01 -4.981927079532918e-01
2.959417919681511e-01 3.391463032372353e-01 -4.685648839916808e-01
3.003556249601161e-01 3.407289937889616e-01 -4.389415847003867e-01
3.047692332287540e-01 3.423116037605011e-01 -4.093197936325317e-01
3.091830662207191e-01 3.438942943122274e-01 -3.796964943412376e-01
3.135975733826651e-01 3.454772266045136e-01 -3.500686703796267e-01
2.756825568731804e-01 4.085234033033863e-01 -1.180216227135850e-01
2.821221574753242e-01 4.258511644693712e-01 -1.416514311457895e-01
2.885621920227726e-01 4.431800933010337e-01 -1.652828319196709e-01
2.950023712186560e-01 4.605094113545886e-01 -1.889147634741113e-01
3.014424057661045e-01 4.778383401862510e-01 -2.125461642479928e-01
3.078820063682482e-01 4.951661013522360e-01 -2.361759726801973e-01
2.461886541966591e-02 -3.905030373410940e-01 1.005197380116514e-01
4.940919732634003e-02 -3.757268827848945e-01 1.087139834524763e-01
7.420031025150667e-02 -3.609502627064904e-01 1.169084870527016e-01
9.899168351617083e-02 -3.461734874540182e-01 1.251030767060604e-01
1.237827964413375e-01 -3.313968673756142e-01 1.332975803062857e-01
1.485731283480116e-01 -3.166207128194146e-01 1.414918257471105e-01
2.282539074539759e-01 -6.911243974510134e-02 -2.094927323497185e-01
2.209050256272066e-01 -4.240585146396152e-02 -2.210369767723613e-01
2.135532196354432e-01 -1.568863646811824e-02 -2.325858147204165e-01
2.062004389220152e-01 1.103212076595953e-02 -2.441361838436091e-01
1.988486329302518e-01 3.774933576180283e-02 -2.556850217916643e-01
1.914997511034825e-01 6.445592404294263e-02 -2.672292662143071e-01
2.123383396481303e-01 -5.374708042656427e-02 -3.410272222608441e-02
2.102382289903997e-01 -3.767007689782417e-02 -8.860329048014908e-03
2.081380231529055e-01 -2.159234473824301e-02 1.638320814834994e-02
2.060377855888234e-01 -5.514369701714854e-03 4.162712668414657e-02
2.039375797513292e-01 1.056336245786631e-02 6.687066388051144e-02
2.018374690935986e-01 2.664036598660641e-02 9.211305705858093e-02
1.154599298431545e-01 -1.628821721834045e-01 4.302291776116335e-01
1.153559851003227e-01 -1.354767155260918e-01 4.424534764260669e-01
1.152520001285099e-01 -1.080606523333705e-01 4.546825063223371e-01
1.151480017470368e-01 -8.064105362884645e-02 4.669131132458862e-01
1.150440167752240e-01 -5.322499043612519e-02 4.791421431421564e-01
1.149400720323922e-01 -2.581953377881254e-02 4.913664419565899e-01
3.442052087905364e-02 1.362954329834652e-01 -3.477351958336324e-02
5.202809297180114e-02 1.594941408980748e-01 -2.755394178551067e-02
6.964011920246542e-02 1.826987173244813e-01 -2.033253767139807e-02
8.725363014576862e-02 2.059052499214869e-01 -1.311052478519880e-02
1.048656563764329e-01 2.291098263478935e-01 -5.889120671086205e-03
1.224732284691804e-01 2.523085342625030e-01 1.330457126766358e-03
1.464941546668489e-01 -3.124124199374915e-01 5.790345809828493e-02
1.446680236946561e-01 -3.008649386903023e-01 3.027546310425989e-02
1.428419135337719e-01 -2.893175890427617e-01 2.647782969757402e-03
1.410158103099904e-01 -2.777702832617707e-01 -2.497979221157091e-02
1.391897001491061e-01 -2.662229336142301e-01 -5.260747234607341e-02
1.373635691769134e-01 -2.546754523670410e-01 -8.023546734009844e-02
5.392810654986940e-02 -2.205492536957387e-01 -2.645836429745304e-02
5.831219943390679e-02 -1.938962426601210e-01 -3.953079822987759e-02
6.269795016314431e-02 -1.672331527854864e-01 -5.260817550461300e-02
6.708425350744850e-02 -1.405667032978462e-01 -6.568720056011869e-02
7.147000423668598e-02 -1.139036134232116e-01 -7.876457783485412e-02
7.585409712072338e-02 -8.725060238759395e-02 -9.183701176727867e-02
4.417369256581255e-01 -4.595059628352149e-01 3.101099108828894e-01
4.392800814086342e-01 -4.328270250841484e-01 2.965908057934867e-01
4.368221642044374e-01 -4.061364360890930e-01 2.830657966312390e-01
4.343638893486723e-01 -3.794419633460413e-01 2.695388194447098e-01
4.319059721444757e-01 -3.527513743509859e-01 2.560138102824621e-01
4.294491278949843e-01 -3.260724365999194e-01 2.424947051930594e-01
3.011166830553013e-01 3.334736074918619e-01 1.420191413554484e-01
3.055776934478757e-01 3.346041404881102e-01 1.123777241580132e-01
3.100379910948853e-01 3.357344928565840e-01 8.274104283581224e-02
3.144980511600402e-01 3.368647850157997e-01 5.310594013868940e-02
3.189583488070499e-01 3.379951373842735e-01 2.346925881648844e-02
3.234193591996243e-01 3.391256703805218e-01 -6.172158380946768e-03
8.842711318235322e-02 -3.717426018096094e-01 3.721761628486417e-01
8.183396164612484e-02 -3.491024479064728e-01 3.907288961704817e-01
7.523954180293767e-02 -3.264579387773739e-01 4.092851984320992e-01
6.864469919076420e-02 -3.038119779062875e-01 4.278426903403094e-01
6.205027934757701e-02 -2.811674687771886e-01 4.463989926019269e-01
5.545712781134866e-02 -2.585273148740521e-01 4.649517259237669e-01
4.912890378997277e-02 3.166079143269940e-01 -4.936950514141297e-01
5.806583070712694e-02 3.320390655727791e-01 -4.695695713442381e-01
6.700294928317234e-02 3.474705477508148e-01 -4.454435738858972e-01
7.594013174551478e-02 3.629021402396007e-01 -4.213174039647399e-01
8.487725032156017e-02 3.783336224176365e-01 -3.971914065063989e-01
9.381417723871435e-02 3.937647736634216e-01 -3.730659264365075e-01
1.954706204113194e-01 -3.036674428622191e-01 -3.498232622973657e-02
2.007064600641558e-01 -2.755631483289563e-01 -2.585635458361040e-02
2.059445088214955e-01 -2.474469960369135e-01 -1.672653250920587e-02
2.111832939470030e-01 -2.193268911586106e-01 -7.595426958708552e-03
2.164213427043427e-01 -1.912107388665677e-01 1.534395115695984e-03
2.216571823571792e-01 -1.631064443333050e-01 1.066036676182215e-02
2.047886626900920e-01 1.530237278404783e-01 -8.345977355994302e-02
2.017487410143807e-01 1.826830366595009e-01 -8.003081414685126e-02
1.987072453413057e-01 2.123577023458619e-01 -7.660007930213579e-02
1.956652250024428e-01 2.420374869880023e-01 -7.316875264687908e-02
1.926237293293679e-01 2.717121526743633e-01 -6.973801780216360e-02
1.895838076536567e-01 3.013714614933860e-01 -6.630905838907185e-02
2.225802330293512e-01 9.495987435987012e-02 1.102131678695477e-01
2.251196118385275e-01 1.217829341260036e-01 9.700054012344325e-02
2.276599640207251e-01 1.486162754785754e-01 8.378284782558990e-02
2.302006406605965e-01 1.754530440266266e-01 7.056346734382028e-02
2.327409928427942e-01 2.022863853791985e-01 5.734577504596694e-02
2.352803716519705e-01 2.291094451453320e-01 4.413314729986249e-02
3.504579711731607e-01 3.072100825279394e-01 -1.894435832092866e-01
3.604448688352874e-01 3.133943336921755e-01 -1.618420413500406e-01
3.704304465044361e-01 3.195777674686314e-01 -1.342441476548859e-01
3.804155841759256e-01 3.257609287824940e-01 -1.066474700144283e-01
3.904011618450745e-01 3.319443625589499e-01 -7.904957631927360e-02
4.003880595072011e-01 3.381286137231860e-01 -5.144803446002767e-02
2.146507121700815e-01 -1.287283027924463e-01 -1.360316863777021e-01
2.411591951061268e-01 -1.218923933966965e-01 -1.237673321829196e-01
2.676644906679226e-01 -1.150573059492126e-01 -1.115044526514304e-01
2.941687237716354e-01 -1.082224924844839e-01 -9.924206467437219e-02
3.206740193334314e-01 -1.013874050370000e-01 -8.697918514288291e-02
3.471825022694767e-01 -9.455149564125025e-02 -7.471483094810041e-02
2.715631874935121e-01 -4.204032469885940e-01 1.208119656135812e-01
2.898652090401114e-01 -3.978242245030970e-01 1.133662813697641e-01
3.081702493592459e-01 -3.752414777878598e-01 1.059193690196942e-01
3.264762959358921e-01 -3.526574896627090e-01 9.847204730087332e-02
3.447813362550267e-01 -3.300747429474718e-01 9.102513495080340e-02
3.630833578016260e-01 -3.074957204619749e-01 8.357945070698636e-02
        </DataArray>
      </Points>

      <Cells>
        <DataArray type="Int32" Name="connectivity" format="ascii">
0 1 2 3 4 5 6 7 8 9 10 11 12 13 14 15 16 17 18 19 20 21 22 23 24 25 26 27 28 29 30 31 32 33 34 35 36 37 38 39 40 41 42 43 44 45 46 47 48 49 50 51 52 53 54 55 56 57 58 59 60 61 62 63 64 65 66 67 68 69 70 71 72 73 74 75 76 77 78 79 80 81 82 83 84 85 86 87 88 89 90 91 92 93 94 95 96 97 98 99 100 101 102 103 104 105 106 107 108 109 110 111 112 113 114 115 116 117 118 119 120 121 122 123 124 125 126 127 128 129 130 131 132 133 134 135 136 137 138 139 140 141 142 143 144 145 146 147 148 149 150 151 152 153 154 155 156 157 158 159 160 161 162 163 164 165 166 167 168 169 170 171 172 173 174 175 176 177 178 179 180 181 182 183 184 185 186 187 188 189 190 191 192 193 194 195 196 197 198 199 200 201 202 203 204 205 206 207 208 209 210 211 212 213 214 215 216 217 218 219 220 221 222 223 224 225 226 227 228 229 230 231 232 233 234 235 236 237 238 239 240 241 242 243 244 245 246 247 248 249 250 251 252 253 254 255 256 257 258 259 260 261 262 263 264 265 266 267 268 269 270 271 272 273 274 275 276 277 278 279 280 281 282 283 284 285 286 287 288 289 290 291 292 293 294 295 296 297 298 299 300 301 302 303 304 305 
        </DataArray>
        <DataArray type="Int32" Name="offsets" format="ascii">
6 12 18 24 30 36 42 48 54 60 66 72 78 84 90 96 102 108 114 120 126 132 138 144 150 156 162 168 174 180 186 192 198 204 210 216 222 228 234 240 246 252 258 264 270 276 282 288 294 300 306 
        </DataArray>
        <DataArray type="UInt8" Name="types" format="ascii">
4 4 4 4 4 4 4 4 4 4 4 4 4 4 4 4 4 4 4 4 4 4 4 4 4 4 4 4 4 4 4 4 4 4 4 4 4 4 4 4 4 4 4 4 4 4 4 4 4 4 4 
        </DataArray>
      </Cells>

  <CellData>
        <DataArray type="Float64" Name="cross_section_radius" format="ascii">
5.000000000000000e-03
5.000000000000000e-03
5.000000000000000e-03
5.000000000000000e-03
5.000000000000000e-03
5.000000000000000e-03
5.000000000000000e-03
5.000000000000000e-03
5.000000000000000e-03
5.000000000000000e-03
5.000000000000000e-03
5.000000000000000e-03
5.000000000000000e-03
5.000000000000000e-03
5.000000000000000e-03
5.000000000000000e-03
5.000000000000000e-03
5.000000000000000e-03
5.000000000000000e-03
5.000000000000000e-03
5.000000000000000e-03
5.000000000000000e-03
5.000000000000000e-03
5.000000000000000e-03
5.000000000000000e-03
5.000000000000000e-03
5.000000000000000e-03
5.000000000000000e-03
5.000000000000000e-03
5.000000000000000e-03
5.000000000000000e-03
5.000000000000000e-03
5.000000000000000e-03
5.000000000000000e-03
5.000000000000000e-03
5.000000000000000e-03
5.000000000000000e-03
5.000000000000000e-03
5.000000000000000e-03
5.000000000000000e-03
5.000000000000000e-03
5.000000000000000e-03
5.000000000000000e-03
5.000000000000000e-03
5.000000000000000e-03
5.000000000000000e-03
5.000000000000000e-03
5.000000000000000e-03
5.000000000000000e-03
5.000000000000000e-03
5.000000000000000e-03
        </DataArray>
        <DataArray type="Float64" Name="element_ghosting" NumberOfComponents="3" format="ascii">
0.000000000000000e+00 0.000000000000000e+00 0.000000000000000e+00
0.000000000000000e+00 0.000000000000000e+00 0.000000000000000e+00
0.000000000000000e+00 0.000000000000000e+00 0.000000000000000e+00
0.000000000000000e+00 0.000000000000000e+00 0.000000000000000e+00
0.000000000000000e+00 0.000000000000000e+00 0.000000000000000e+00
0.000000000000000e+00 0.000000000000000e+00 0.000000000000000e+00
0.000000000000000e+00 0.000000000000000e+00 0.000000000000000e+00
0.000000000000000e+00 0.000000000000000e+00 0.000000000000000e+00
0.000000000000000e+00 0.000000000000000e+00 0.000000000000000e+00
0.000000000000000e+00 0.000000000000000e+00 0.000000000000000e+00
0.000000000000000e+00 0.000000000000000e+00 0.000000000000000e+00
0.000000000000000e+00 0.000000000000000e+00 0.000000000000000e+00
0.000000000000000e+00 0.000000000000000e+00 0.000000000000000e+00
0.000000000000000e+00 0.000000000000000e+00 0.000000000000000e+00
0.000000000000000e+00 0.000000000000000e+00 0.000000000000000e+00
0.000000000000000e+00 0.000000000000000e+00 0.000000000000000e+00
0.000000000000000e+00 0.000000000000000e+00 0.000000000000000e+00
0.000000000000000e+00 0.000000000000000e+00 0.000000000000000e+00
0.000000000000000e+00 0.000000000000000e+00 0.000000000000000e+00
0.000000000000000e+00 0.000000000000000e+00 0.000000000000000e+00
0.000000000000000e+00 0.000000000000000e+00 0.000000000000000e+00
0.000000000000000e+00 0.000000000000000e+00 0.000000000000000e+00
0.000000000000000e+00 0.000000000000000e+00 0.000000000000000e+00
0.000000000000000e+00 0.000000000000000e+00 0.000000000000000e+00
0.000000000000000e+00 0.000000000000000e+00 0.000000000000000e+00
0.000000000000000e+00 0.000000000000000e+00 0.000000000000000e+00
0.000000000000000e+00 0.000000000000000e+00 0.000000000000000e+00
0.000000000000000e+00 0.000000000000000e+00 0.000000000000000e+00
0.000000000000000e+00 0.000000000000000e+00 0.000000000000000e+00
0.000000000000000e+00 0.000000000000000e+00 0.000000000000000e+00
0.000000000000000e+00 0.000000000000000e+00 0.000000000000000e+00
0.000000000000000e+00 0.000000000000000e+00 0.000000000000000e+00
0.000000000000000e+00 0.000000000000000e+00 0.000000000000000e+00
0.000000000000000e+00 0.000000000000000e+00 0.000000000000000e+00
0.000000000000000e+00 0.000000000000000e+00 0.000000000000000e+00
0.000000000000000e+00 0.000000000000000e+00 0.000000000000000e+00
0.000000000000000e+00 0.000000000000000e+00 0.000000000000000e+00
0.000000000000000e+00 0.000000000000000e+00 0.000000000000000e+00
0.000000000000000e+00 0.000000000000000e+00 0.000000000000000e+00
0.000000000000000e+00 0.000000000000000e+00 0.000000000000000e+00
0.000000000000000e+00 0.000000000000000e+00 0.000000000000000e+00
0.000000000000000e+00 0.000000000000000e+00 0.000000000000000e+00
0.000000000000000e+00 0.000000000000000e+00 0.000000000000000e+00
0.000000000000000e+00 0.000000000000000e+00 0.000000000000000e+00
0.000000000000000e+00 0.000000000000000e+00 0.000000000000000e+00
0.000000000000000e+00 0.000000000000000e+00 0.000000000000000e+00
0.000000000000000e+00 0.000000000000000e+00 0.000000000000000e+00
0.000000000000000e+00 0.000000000000000e+00 0.000000000000000e+00
0.000000000000000e+00 0.000000000000000e+00 0.000000000000000e+00
0.000000000000000e+00 0.000000000000000e+00 0.000000000000000e+00
0.000000000000000e+00 0.000000000000000e+00 0.000000000000000e+00
        </DataArray>
        <DataArray type="Float64" Name="element_owner" format="ascii">
2.000000000000000e+00
2.000000000000000e+00
2.000000000000000e+00
2.000000000000000e+00
2.000000000000000e+00
2.000000000000000e+00
2.000000000000000e+00
2.000000000000000e+00
2.000000000000000e+00
2.000000000000000e+00
2.000000000000000e+00
2.000000000000000e+00
2.000000000000000e+00
2.000000000000000e+00
2.000000000000000e+00
2.000000000000000e+00
2.000000000000000e+00
2.000000000000000e+00
2.000000000000000e+00
2.000000000000000e+00
2.000000000000000e+00
2.000000000000000e+00
2.000000000000000e+00
2.000000000000000e+00
2.000000000000000e+00
2.000000000000000e+00
2.000000000000000e+00
2.000000000000000e+00
2.000000000000000e+00
2.000000000000000e+00
2.000000000000000e+00
2.000000000000000e+00
2.000000000000000e+00
2.000000000000000e+00
2.000000000000000e+00
2.000000000000000e+00
2.000000000000000e+00
2.000000000000000e+00
2.000000000000000e+00
2.000000000000000e+00
2.000000000000000e+00
2.000000000000000e+00
2.000000000000000e+00
2.000000000000000e+00
2.000000000000000e+00
2.000000000000000e+00
2.000000000000000e+00
2.000000000000000e+00
2.000000000000000e+00
2.000000000000000e+00
2.000000000000000e+00
        </DataArray>
      </CellData>

    </Piece>
  </UnstructuredGrid>
</VTKFile>
