<?xml version="1.0" ?> 
<!-- 
# vtk DataFile Version 3.0
-->
<VTKFile type="UnstructuredGrid" version="0.1" compressor="vtkZLibDataCompressor" byte_order="LittleEndian">
  <UnstructuredGrid>
    <FieldData>
      <DataArray type="Float64" Name="TIME" NumberOfTuples="1" format="ascii">
0.000000000000000e+00 
      </DataArray>
    </FieldData>

    <Piece NumberOfPoints="306" NumberOfCells="51" >
      <Points>
        <DataArray type="Float64" NumberOfComponents="3" format="ascii">
3.724421562420000e-01 -1.893001079640000e-01 3.301640803620000e-01
3.692926477270000e-01 -1.594669689929200e-01 3.299102787800000e-01
3.661431392120000e-01 -1.296338300218400e-01 3.296564771980000e-01
3.629936306970000e-01 -9.980069105075999e-02 3.294026756160000e-01
3.598441221820000e-01 -6.996755207968000e-02 3.291488740339999e-01
3.566946136670000e-01 -4.013441310860000e-02 3.288950724520000e-01
2.747664185270000e-01 -1.790163040970000e-01 2.806076557730000e-01
2.692815201514000e-01 -1.756572818270000e-01 3.099100935418000e-01
2.637966217758000e-01 -1.722982595570000e-01 3.392125313106000e-01
2.583117234002000e-01 -1.689392372870000e-01 3.685149690794000e-01
2.528268250246000e-01 -1.655802150170000e-01 3.978174068481999e-01
2.473419266490000e-01 -1.622211927470000e-01 4.271198446170000e-01
1.934881155560000e-01 -2.954775506660000e-01 2.415871964730000e-01
2.036324639580000e-01 -2.695903552610000e-01 2.528541973856000e-01
2.137768123600000e-01 -2.437031598560000e-01 2.641211982982000e-01
2.239211607620000e-01 -2.178159644510000e-01 2.753881992108000e-01
2.340655091640000e-01 -1.919287690460000e-01 2.866552001234000e-01
2.442098575660000e-01 -1.660415736410000e-01 2.979222010360000e-01
3.761453060900000e-03 -1.467345027450000e-01 3.395205139830000e-01
2.955268398612000e-02 -1.314656382233600e-01 3.408144164468000e-01
5.534391491134000e-02 -1.161967737017200e-01 3.421083189106000e-01
8.113514583655998e-02 -1.009279091800800e-01 3.434022213744000e-01
1.069263767617800e-01 -8.565904465843999e-02 3.446961238382000e-01
1.327176076870000e-01 -7.039018013680000e-02 3.459900263020000e-01
9.108534709870000e-02 -3.617907407870000e-01 3.458150212220000e-01
1.088916520753600e-01 -3.459666882578000e-01 3.640505597288000e-01
1.266979570520200e-01 -3.301426357286000e-01 3.822860982356000e-01
1.445042620286800e-01 -3.143185831994000e-01 4.005216367423999e-01
1.623105670053400e-01 -2.984945306702000e-01 4.187571752492000e-01
1.801168719820000e-01 -2.826704781410000e-01 4.369927137560000e-01
2.899704639190000e-01 -4.247639057630000e-01 -3.708934390960000e-02
3.032674793746000e-01 -4.189958327175999e-01 -1.082304014764000e-02
3.165644948302000e-01 -4.132277596721999e-01 1.544326361432000e-02
3.298615102858000e-01 -4.074596866267999e-01 4.170956737628000e-02
3.431585257414000e-01 -4.016916135814000e-01 6.797587113824001e-02
3.564555411970000e-01 -3.959235405360000e-01 9.424217490020000e-02
3.509267972300000e-01 -3.986887866810000e-01 -2.559943776500000e-01
3.477151390874000e-01 -3.776766128319999e-01 -2.348242618706000e-01
3.445034809448000e-01 -3.566644389830000e-01 -2.136541460912000e-01
3.412918228022000e-01 -3.356522651340000e-01 -1.924840303118000e-01
3.380801646596000e-01 -3.146400912850000e-01 -1.713139145324000e-01
3.348685065170000e-01 -2.936279174360000e-01 -1.501437987530000e-01
3.296543031250000e-01 -2.932896947250000e-01 -4.137624443020000e-01
3.179554002540000e-01 -2.855296215672000e-01 -3.872498635864000e-01
3.062564973830000e-01 -2.777695484094000e-01 -3.607372828707999e-01
2.945575945120000e-01 -2.700094752516000e-01 -3.342247021552000e-01
2.828586916410000e-01 -2.622494020938000e-01 -3.077121214396000e-01
2.711597887700000e-01 -2.544893289360000e-01 -2.811995407240000e-01
1.890042038200000e-01 -1.985847973500000e-01 3.210260915600000e-01
1.954953446424000e-01 -1.755858237867000e-01 3.391620311787999e-01
2.019864854648000e-01 -1.525868502234000e-01 3.572979707976000e-01
2.084776262872000e-01 -1.295878766601000e-01 3.754339104164000e-01
2.149687671096000e-01 -1.065889030968000e-01 3.935698500352001e-01
2.214599079320000e-01 -8.358992953350000e-02 4.117057896540000e-01
2.353343768400000e-01 -3.069157756110000e-01 4.391858568760000e-01
2.435578837656000e-01 -2.840652858366000e-01 4.215725366064000e-01
2.517813906912000e-01 -2.612147960621999e-01 4.039592163367999e-01
2.600048976168000e-01 -2.383643062878000e-01 3.863458960671999e-01
2.682284045424000e-01 -2.155138165134000e-01 3.687325757975999e-01
2.764519114680000e-01 -1.926633267390000e-01 3.511192555280000e-01
3.375172698360000e-01 -3.601428446620000e-02 -3.349328614980000e-01
3.489464719304000e-01 -1.528219343258000e-02 -3.533598455394000e-01
3.603756740248000e-01 5.449897601040005e-03 -3.717868295808000e-01
3.718048761192000e-01 2.618198863465999e-02 -3.902138136222000e-01
3.832340782136000e-01 4.691407966828000e-02 -4.086407976636000e-01
3.946632803080000e-01 6.764617070190000e-02 -4.270677817050000e-01
2.144297054270000e-01 -2.112174898370000e-01 -4.559147417580000e-01
2.128432339974000e-01 -1.814053935945600e-01 -4.588680494002000e-01
2.112567625677999e-01 -1.515932973521200e-01 -4.618213570424000e-01
2.096702911382000e-01 -1.217812011096800e-01 -4.647746646846000e-01
2.080838197086000e-01 -9.196910486724000e-02 -4.677279723268000e-01
2.064973482790000e-01 -6.215700862480000e-02 -4.706812799690000e-01
3.196087108150000e-01 -2.372864104110000e-01 3.151644484030000e-01
3.076519776184000e-01 -2.224885206036000e-01 2.919683498406000e-01
2.956952444218000e-01 -2.076906307962000e-01 2.687722512782000e-01
2.837385112251999e-01 -1.928927409888000e-01 2.455761527158000e-01
2.717817780286000e-01 -1.780948511814000e-01 2.223800541534000e-01
2.598250448320000e-01 -1.632969613740000e-01 1.991839555910000e-01
2.389625092750000e-01 -3.219444425720000e-01 1.030207452030000e-01
2.244825354720000e-01 -3.090230200634000e-01 1.258979652922000e-01
2.100025616690000e-01 -2.961015975548000e-01 1.487751853814000e-01
1.955225878660000e-01 -2.831801750462000e-01 1.716524054706000e-01
1.810426140630000e-01 -2.702587525376000e-01 1.945296255598000e-01
1.665626402600000e-01 -2.573373300290000e-01 2.174068456490000e-01
3.812795962980000e-01 -4.702237629260000e-02 3.327911857070000e-01
3.927852347924000e-01 -2.626608135591999e-02 3.144391693782000e-01
4.042908732868000e-01 -5.509786419239994e-03 2.960871530494000e-01
4.157965117812000e-01 1.524650851743999e-02 2.777351367206000e-01
4.273021502756000e-01 3.600280345412001e-02 2.593831203918000e-01
4.388077887700000e-01 5.675909839080000e-02 2.410311040630000e-01
4.487338699990000e-01 -3.853833558320000e-01 2.711353139210000e-01
4.423698236376000e-01 -3.572108353504000e-01 2.792475271598000e-01
4.360057772762000e-01 -3.290383148688000e-01 2.873597403986000e-01
4.296417309148000e-01 -3.008657943872000e-01 2.954719536374000e-01
4.232776845534000e-01 -2.726932739056000e-01 3.035841668762000e-01
4.169136381920000e-01 -2.445207534240000e-01 3.116963801150000e-01
2.735769840910000e-01 -1.184213385720000e-02 -3.001900730150000e-01
2.745449567482000e-01 5.071115222800037e-04 -3.275133079534000e-01
2.755129294054000e-01 1.285635690176000e-02 -3.548365428917999e-01
2.764809020626000e-01 2.520560228124000e-02 -3.821597778302000e-01
2.774488747198000e-01 3.755484766072000e-02 -4.094830127686000e-01
2.784168473770000e-01 4.990409304020000e-02 -4.368062477070000e-01
2.842801341750000e-01 -4.354195143600000e-02 -2.931239569460000e-01
3.073762020558000e-01 -3.836548638156000e-02 -2.746909469372000e-01
3.304722699365999e-01 -3.318902132712000e-02 -2.562579369284000e-01
3.535683378174000e-01 -2.801255627268000e-02 -2.378249269196000e-01
3.766644056982000e-01 -2.283609121824000e-02 -2.193919169108000e-01
3.997604735790000e-01 -1.765962616380000e-02 -2.009589069020000e-01
3.860127550710000e-01 3.795351364090000e-01 -3.289333422640000e-01
4.001763725549999e-01 4.003812272502000e-01 -3.452070153716000e-01
4.143399900390000e-01 4.212273180914000e-01 -3.614806884792000e-01
4.285036075230000e-01 4.420734089326000e-01 -3.777543615868000e-01
4.426672250070000e-01 4.629194997738000e-01 -3.940280346944000e-01
4.568308424910000e-01 4.837655906150000e-01 -4.103017078020000e-01
4.594392672240000e-01 -3.568679546930000e-01 -3.961921743990000e-01
4.615763060250000e-01 -3.483382467871999e-01 -3.675098253283999e-01
4.637133448260000e-01 -3.398085388813999e-01 -3.388274762578000e-01
4.658503836269999e-01 -3.312788309755999e-01 -3.101451271872000e-01
4.679874224280000e-01 -3.227491230698000e-01 -2.814627781166000e-01
4.701244612290000e-01 -3.142194151640000e-01 -2.527804290460000e-01
4.394724872610000e-01 -1.783761718880000e-01 2.183150713310000e-01
4.393642945832000e-01 -1.610622335966200e-01 2.428143740800000e-01
4.392561019054000e-01 -1.437482953052400e-01 2.673136768290000e-01
4.391479092276000e-01 -1.264343570138600e-01 2.918129795780000e-01
4.390397165498000e-01 -1.091204187224800e-01 3.163122823270000e-01
4.389315238720000e-01 -9.180648043110000e-02 3.408115850760000e-01
8.176790828090000e-02 -2.108728030690000e-01 2.879239729020000e-01
8.524220243893998e-02 -1.999833669126000e-01 2.601868234396000e-01
8.871649659698000e-02 -1.890939307562000e-01 2.324496739772000e-01
9.219079075502000e-02 -1.782044945998000e-01 2.047125245148000e-01
9.566508491306000e-02 -1.673150584434000e-01 1.769753750524000e-01
9.913937907110000e-02 -1.564256222870000e-01 1.492382255900000e-01
1.181079770280000e-01 -2.162996736730000e-01 -1.824855532520000e-01
1.329428549476000e-01 -1.913112697239600e-01 -1.899357925222000e-01
1.477777328672000e-01 -1.663228657749200e-01 -1.973860317924000e-01
1.626126107868000e-01 -1.413344618258800e-01 -2.048362710626000e-01
1.774474887064000e-01 -1.163460578768400e-01 -2.122865103328000e-01
1.922823666260000e-01 -9.135765392780000e-02 -2.197367496030000e-01
1.381202637320000e-01 -2.278872935810000e-02 -2.236937085350000e-01
1.428212126112000e-01 -4.727340757859997e-03 -2.002056834698000e-01
1.475221614904000e-01 1.333404784238000e-02 -1.767176584046000e-01
1.522231103696000e-01 3.139543644261999e-02 -1.532296333394000e-01
1.569240592488000e-01 4.945682504286000e-02 -1.297416082742000e-01
1.616250081280000e-01 6.751821364310000e-02 -1.062535832090000e-01
1.724629790900000e-01 -8.020573512290000e-02 3.441117882610000e-01
1.786204987930000e-01 -6.643590362623999e-02 3.700439438146000e-01
1.847780184960000e-01 -5.266607212958000e-02 3.959760993681999e-01
1.909355381990000e-01 -3.889624063291999e-02 4.219082549217999e-01
1.970930579020000e-01 -2.512640913626000e-02 4.478404104754000e-01
2.032505776050000e-01 -1.135657763960000e-02 4.737725660290000e-01
2.983233085110000e-01 -3.809225712720000e-01 3.743372576890000e-01
2.844749772380000e-01 -3.645136090124000e-01 3.952888609336000e-01
2.706266459650000e-01 -3.481046467528000e-01 4.162404641782000e-01
2.567783146920000e-01 -3.316956844932000e-01 4.371920674227999e-01
2.429299834190000e-01 -3.152867222336000e-01 4.581436706674000e-01
2.290816521460000e-01 -2.988777599740000e-01 4.790952739120000e-01
-5.134864590080000e-02 -1.903818583590000e-01 1.142600632870000e-01
-4.065246262182599e-02 -1.792631527318000e-01 8.853136241737999e-02
-2.995627934285200e-02 -1.681444471046000e-01 6.280266154775999e-02
-1.926009606387800e-02 -1.570257414774000e-01 3.707396067814001e-02
-8.563912784903999e-03 -1.459070358502000e-01 1.134525980852000e-02
2.132270494070000e-03 -1.347883302230000e-01 -1.438344106110000e-02
1.746405392780000e-01 -2.236857481590000e-01 1.543264587340000e-01
1.894089383586000e-01 -2.169133382436000e-01 1.795460711922000e-01
2.041773374392000e-01 -2.101409283282000e-01 2.047656836504000e-01
2.189457365198000e-01 -2.033685184128000e-01 2.299852961086000e-01
2.337141356004000e-01 -1.965961084974000e-01 2.552049085667999e-01
2.484825346810000e-01 -1.898236985820000e-01 2.804245210250000e-01
2.525302585790000e-01 -1.873076135170000e-01 -1.882126441340000e-01
2.494191914542000e-01 -1.592032716088800e-01 -1.982359782728000e-01
2.463081243294000e-01 -1.310989297007600e-01 -2.082593124116000e-01
2.431970572046000e-01 -1.029945877926400e-01 -2.182826465504000e-01
2.400859900798000e-01 -7.489024588451999e-02 -2.283059806892000e-01
2.369749229550000e-01 -4.678590397640000e-02 -2.383293148280000e-01
3.405405565560000e-01 -3.946044112590000e-01 -2.681562069760000e-01
3.362490762148000e-01 -3.650446687216000e-01 -2.653624966110000e-01
3.319575958736000e-01 -3.354849261841999e-01 -2.625687862460000e-01
3.276661155324000e-01 -3.059251836468000e-01 -2.597750758810000e-01
3.233746351912000e-01 -2.763654411094000e-01 -2.569813655160000e-01
3.190831548500000e-01 -2.468056985720000e-01 -2.541876551510000e-01
2.772039039860000e-01 -2.972237841030000e-01 -2.697128910800000e-01
2.893613927245999e-01 -2.842650698998000e-01 -2.938845106734000e-01
3.015188814632000e-01 -2.713063556966000e-01 -3.180561302668000e-01
3.136763702017999e-01 -2.583476414933999e-01 -3.422277498602000e-01
3.258338589404000e-01 -2.453889272902000e-01 -3.663993694536000e-01
3.379913476790000e-01 -2.324302130870000e-01 -3.905709890470000e-01
2.915992968450000e-01 -4.578003795480000e-01 -4.943512249020000e-01
3.106552388920000e-01 -4.555832403357999e-01 -4.712870672884000e-01
3.297111809390000e-01 -4.533661011236000e-01 -4.482229096748000e-01
3.487671229860000e-01 -4.511489619114000e-01 -4.251587520612000e-01
3.678230650330001e-01 -4.489318226992000e-01 -4.020945944476000e-01
3.868790070800000e-01 -4.467146834870000e-01 -3.790304368340000e-01
2.916193667350000e-01 3.367573677970000e-01 -4.983373545400000e-01
2.960343730662000e-01 3.383387710524000e-01 -4.687061736180000e-01
3.004493793974000e-01 3.399201743078000e-01 -4.390749926960000e-01
3.048643857286000e-01 3.415015775632000e-01 -4.094438117740000e-01
3.092793920598000e-01 3.430829808186000e-01 -3.798126308520000e-01
3.136943983910000e-01 3.446643840740000e-01 -3.501814499300000e-01
2.757686768450000e-01 4.076524243050000e-01 -1.180557897160000e-01
2.822110820112000e-01 4.249636239732000e-01 -1.416951167310000e-01
2.886534871774000e-01 4.422748236414000e-01 -1.653344437460000e-01
2.950958923436000e-01 4.595860233096000e-01 -1.889737707610000e-01
3.015382975098000e-01 4.768972229778000e-01 -2.126130977760000e-01
3.079807026760000e-01 4.942084226460000e-01 -2.362524247910000e-01
2.461895483040000e-02 -3.905818162200000e-01 1.005297617390000e-01
4.941475918532000e-02 -3.758178655006000e-01 1.087269469604000e-01
7.421056354024001e-02 -3.610539147812000e-01 1.169241321818000e-01
9.900636789515997e-02 -3.462899640618000e-01 1.251213174032000e-01
1.238021722500800e-01 -3.315260133424000e-01 1.333185026246000e-01
1.485979766050000e-01 -3.167620626230000e-01 1.415156878460000e-01
2.283240714380000e-01 -6.951212913719999e-02 -2.095476400150000e-01
2.209702054284000e-01 -4.282070218353998e-02 -2.211013572476000e-01
2.136163394188000e-01 -1.612927522987999e-02 -2.326550744802000e-01
2.062624734092000e-01 1.056215172378000e-02 -2.442087917127999e-01
1.989086073996000e-01 3.725357867744001e-02 -2.557625089454000e-01
1.915547413900000e-01 6.394500563110000e-02 -2.673162261780000e-01
2.124010917850000e-01 -5.414662065650000e-02 -3.411423808610000e-02
2.103005866258000e-01 -3.808540502601999e-02 -8.862995927599988e-03
2.082000814666000e-01 -2.202418939553999e-02 1.638824623090001e-02
2.060995763074000e-01 -5.962973765060008e-03 4.163948838939999e-02
2.039990711482000e-01 1.009824186542000e-02 6.689073054790000e-02
2.018985659890000e-01 2.615945749590000e-02 9.214197270640000e-02
1.154893923570000e-01 -1.632058879180000e-01 4.303438105690000e-01
1.153863427670000e-01 -1.358144885108800e-01 4.425790310124000e-01
1.152832931770000e-01 -1.084230891037600e-01 4.548142514558000e-01
1.151802435870000e-01 -8.103168969664000e-02 4.670494718992000e-01
1.150771939970000e-01 -5.364029028952000e-02 4.792846923426000e-01
1.149741444070000e-01 -2.624889088240000e-02 4.915199127860000e-01
3.442577796970000e-02 1.356987023180000e-01 -3.478657646380000e-02
5.204427739836000e-02 1.588806346820000e-01 -2.756255474744999e-02
6.966277682702000e-02 1.820625670460000e-01 -2.033853303110000e-02
8.728127625568000e-02 2.052444994100000e-01 -1.311451131475000e-02
1.048997756843400e-01 2.284264317740000e-01 -5.890489598399998e-03
1.225182751130000e-01 2.516083641380000e-01 1.333532117950000e-03
1.465200791030000e-01 -3.125571226250000e-01 5.791372885680000e-02
1.446946616996000e-01 -3.010205945544000e-01 3.028084316997999e-02
1.428692442962000e-01 -2.894840664838000e-01 2.647957483159998e-03
1.410438268928000e-01 -2.779475384132000e-01 -2.498492820366000e-02
1.392184094894000e-01 -2.664110103426000e-01 -5.261781389047999e-02
1.373929920860000e-01 -2.548744822720000e-01 -8.025069957729999e-02
5.393867469960000e-02 -2.207900164690000e-01 -2.645740925240000e-02
5.832657636708000e-02 -1.941517166369800e-01 -3.953973706558001e-02
6.271447803456000e-02 -1.675134168049600e-01 -5.262206487876000e-02
6.710237970204000e-02 -1.408751169729400e-01 -6.570439269193999e-02
7.149028136952001e-02 -1.142368171409200e-01 -7.878672050512001e-02
7.587818303700000e-02 -8.759851730890000e-02 -9.186904831830001e-02
4.417699015320000e-01 -4.595555137860000e-01 3.101341569440000e-01
4.393239505822000e-01 -4.328872453700000e-01 2.966130333351999e-01
4.368779996324000e-01 -4.062189769540000e-01 2.830919097264000e-01
4.344320486826000e-01 -3.795507085380000e-01 2.695707861176000e-01
4.319860977328000e-01 -3.528824401220000e-01 2.560496625088000e-01
4.295401467830000e-01 -3.262141717060000e-01 2.425285389000000e-01
3.012116892830000e-01 3.326802658590000e-01 1.420573178500000e-01
3.056731303782000e-01 3.338093030262000e-01 1.124124056654520e-01
3.101345714734000e-01 3.349383401934000e-01 8.276749348090399e-02
3.145960125686000e-01 3.360673773606000e-01 5.312258129635600e-02
3.190574536638000e-01 3.371964145278000e-01 2.347766911180800e-02
3.235188947590000e-01 3.383254516950000e-01 -6.167243072740000e-03
8.843988067649999e-02 -3.718498515320000e-01 3.722304097510000e-01
8.184539220081999e-02 -3.492290026861999e-01 3.907994678648000e-01
7.525090372513998e-02 -3.266081538404000e-01 4.093685259786000e-01
6.865641524945999e-02 -3.039873049946000e-01 4.279375840924000e-01
6.206192677378000e-02 -2.813664561488000e-01 4.465066422062000e-01
5.546743829810000e-02 -2.587456073030000e-01 4.650757003200000e-01
4.914481462720000e-02 3.158275510110000e-01 -4.938455773390000e-01
5.808486632544000e-02 3.312438579074000e-01 -4.697123438773999e-01
6.702491802367999e-02 3.466601648038000e-01 -4.455791104158000e-01
7.596496972191999e-02 3.620764717002000e-01 -4.214458769542000e-01
8.490502142016000e-02 3.774927785966000e-01 -3.973126434926000e-01
9.384507311840000e-02 3.929090854930000e-01 -3.731794100310000e-01
1.955046204610000e-01 -3.038356940460000e-01 -3.499376766090000e-02
2.007475790250000e-01 -2.757445366454000e-01 -2.586150280544000e-02
2.059905375890000e-01 -2.476533792448000e-01 -1.672923794998000e-02
2.112334961530000e-01 -2.195622218442000e-01 -7.596973094520003e-03
2.164764547170000e-01 -1.914710644436000e-01 1.535291760940001e-03
2.217194132810000e-01 -1.633799070430000e-01 1.066755661640000e-02
2.048543445730000e-01 1.523947992330000e-01 -8.348726191620000e-02
2.018118151422000e-01 1.820421256108000e-01 -8.005519937114000e-02
1.987692857114000e-01 2.116894519886000e-01 -7.662313682607999e-02
1.957267562806000e-01 2.413367783664000e-01 -7.319107428101999e-02
1.926842268498000e-01 2.709841047442000e-01 -6.975901173596000e-02
1.896416974190000e-01 3.006314311220000e-01 -6.632694919090000e-02
2.226473661200000e-01 9.439220509310001e-02 1.102534733200000e-01
2.251889015160000e-01 1.212007908098800e-01 9.703075311199999e-02
2.277304369120000e-01 1.480093765266600e-01 8.380803290399999e-02
2.302719723080000e-01 1.748179622434400e-01 7.058531269599999e-02
2.328135077040000e-01 2.016265479602200e-01 5.736259248800001e-02
2.353550431000000e-01 2.284351336770000e-01 4.413987228000000e-02
3.505682355040000e-01 3.064398996170000e-01 -1.894965555580000e-01
3.605565642088001e-01 3.126171779622000e-01 -1.618908582849399e-01
3.705448929136000e-01 3.187944563074000e-01 -1.342851610118800e-01
3.805332216184000e-01 3.249717346526000e-01 -1.066794637388200e-01
3.905215503232000e-01 3.311490129978000e-01 -7.907376646575999e-02
4.005098790280000e-01 3.373262913430000e-01 -5.146806919270000e-02
2.147133000850000e-01 -1.290527497450000e-01 -1.360662330070000e-01
2.412264491844000e-01 -1.222260774340600e-01 -1.238004484823800e-01
2.677395982838000e-01 -1.153994051231200e-01 -1.115346639577600e-01
2.942527473832000e-01 -1.085727328121800e-01 -9.926887943314000e-02
3.207658964826001e-01 -1.017460605012400e-01 -8.700309490852000e-02
3.472790455820000e-01 -9.491938819030001e-02 -7.473731038390000e-02
2.715813681150000e-01 -4.204632629780000e-01 1.208234283740000e-01
2.898974287586000e-01 -3.979005382836000e-01 1.133772631287400e-01
3.082134894021999e-01 -3.753378135892000e-01 1.059310978834800e-01
3.265295500457999e-01 -3.527750888948000e-01 9.848493263822000e-02
3.448456106894000e-01 -3.302123642004000e-01 9.103876739295999e-02
3.631616713330000e-01 -3.076496395060000e-01 8.359260214769999e-02
        </DataArray>
      </Points>

      <Cells>
        <DataArray type="Int32" Name="connectivity" format="ascii">
0 1 2 3 4 5 6 7 8 9 10 11 12 13 14 15 16 17 18 19 20 21 22 23 24 25 26 27 28 29 30 31 32 33 34 35 36 37 38 39 40 41 42 43 44 45 46 47 48 49 50 51 52 53 54 55 56 57 58 59 60 61 62 63 64 65 66 67 68 69 70 71 72 73 74 75 76 77 78 79 80 81 82 83 84 85 86 87 88 89 90 91 92 93 94 95 96 97 98 99 100 101 102 103 104 105 106 107 108 109 110 111 112 113 114 115 116 117 118 119 120 121 122 123 124 125 126 127 128 129 130 131 132 133 134 135 136 137 138 139 140 141 142 143 144 145 146 147 148 149 150 151 152 153 154 155 156 157 158 159 160 161 162 163 164 165 166 167 168 169 170 171 172 173 174 175 176 177 178 179 180 181 182 183 184 185 186 187 188 189 190 191 192 193 194 195 196 197 198 199 200 201 202 203 204 205 206 207 208 209 210 211 212 213 214 215 216 217 218 219 220 221 222 223 224 225 226 227 228 229 230 231 232 233 234 235 236 237 238 239 240 241 242 243 244 245 246 247 248 249 250 251 252 253 254 255 256 257 258 259 260 261 262 263 264 265 266 267 268 269 270 271 272 273 274 275 276 277 278 279 280 281 282 283 284 285 286 287 288 289 290 291 292 293 294 295 296 297 298 299 300 301 302 303 304 305 
        </DataArray>
        <DataArray type="Int32" Name="offsets" format="ascii">
6 12 18 24 30 36 42 48 54 60 66 72 78 84 90 96 102 108 114 120 126 132 138 144 150 156 162 168 174 180 186 192 198 204 210 216 222 228 234 240 246 252 258 264 270 276 282 288 294 300 306 
        </DataArray>
        <DataArray type="UInt8" Name="types" format="ascii">
4 4 4 4 4 4 4 4 4 4 4 4 4 4 4 4 4 4 4 4 4 4 4 4 4 4 4 4 4 4 4 4 4 4 4 4 4 4 4 4 4 4 4 4 4 4 4 4 4 4 4 
        </DataArray>
      </Cells>

  <CellData>
        <DataArray type="Float64" Name="cross_section_radius" format="ascii">
5.000000000000000e-03
5.000000000000000e-03
5.000000000000000e-03
5.000000000000000e-03
5.000000000000000e-03
5.000000000000000e-03
5.000000000000000e-03
5.000000000000000e-03
5.000000000000000e-03
5.000000000000000e-03
5.000000000000000e-03
5.000000000000000e-03
5.000000000000000e-03
5.000000000000000e-03
5.000000000000000e-03
5.000000000000000e-03
5.000000000000000e-03
5.000000000000000e-03
5.000000000000000e-03
5.000000000000000e-03
5.000000000000000e-03
5.000000000000000e-03
5.000000000000000e-03
5.000000000000000e-03
5.000000000000000e-03
5.000000000000000e-03
5.000000000000000e-03
5.000000000000000e-03
5.000000000000000e-03
5.000000000000000e-03
5.000000000000000e-03
5.000000000000000e-03
5.000000000000000e-03
5.000000000000000e-03
5.000000000000000e-03
5.000000000000000e-03
5.000000000000000e-03
5.000000000000000e-03
5.000000000000000e-03
5.000000000000000e-03
5.000000000000000e-03
5.000000000000000e-03
5.000000000000000e-03
5.000000000000000e-03
5.000000000000000e-03
5.000000000000000e-03
5.000000000000000e-03
5.000000000000000e-03
5.000000000000000e-03
5.000000000000000e-03
5.000000000000000e-03
        </DataArray>
        <DataArray type="Float64" Name="element_ghosting" NumberOfComponents="3" format="ascii">
0.000000000000000e+00 0.000000000000000e+00 0.000000000000000e+00
0.000000000000000e+00 0.000000000000000e+00 0.000000000000000e+00
0.000000000000000e+00 0.000000000000000e+00 0.000000000000000e+00
0.000000000000000e+00 0.000000000000000e+00 0.000000000000000e+00
0.000000000000000e+00 0.000000000000000e+00 0.000000000000000e+00
0.000000000000000e+00 0.000000000000000e+00 0.000000000000000e+00
0.000000000000000e+00 0.000000000000000e+00 0.000000000000000e+00
0.000000000000000e+00 0.000000000000000e+00 0.000000000000000e+00
0.000000000000000e+00 0.000000000000000e+00 0.000000000000000e+00
0.000000000000000e+00 0.000000000000000e+00 0.000000000000000e+00
0.000000000000000e+00 0.000000000000000e+00 0.000000000000000e+00
0.000000000000000e+00 0.000000000000000e+00 0.000000000000000e+00
0.000000000000000e+00 0.000000000000000e+00 0.000000000000000e+00
0.000000000000000e+00 0.000000000000000e+00 0.000000000000000e+00
0.000000000000000e+00 0.000000000000000e+00 0.000000000000000e+00
0.000000000000000e+00 0.000000000000000e+00 0.000000000000000e+00
0.000000000000000e+00 0.000000000000000e+00 0.000000000000000e+00
0.000000000000000e+00 0.000000000000000e+00 0.000000000000000e+00
0.000000000000000e+00 0.000000000000000e+00 0.000000000000000e+00
0.000000000000000e+00 0.000000000000000e+00 0.000000000000000e+00
0.000000000000000e+00 0.000000000000000e+00 0.000000000000000e+00
0.000000000000000e+00 0.000000000000000e+00 0.000000000000000e+00
0.000000000000000e+00 0.000000000000000e+00 0.000000000000000e+00
0.000000000000000e+00 0.000000000000000e+00 0.000000000000000e+00
0.000000000000000e+00 0.000000000000000e+00 0.000000000000000e+00
0.000000000000000e+00 0.000000000000000e+00 0.000000000000000e+00
0.000000000000000e+00 0.000000000000000e+00 0.000000000000000e+00
0.000000000000000e+00 0.000000000000000e+00 0.000000000000000e+00
0.000000000000000e+00 0.000000000000000e+00 0.000000000000000e+00
0.000000000000000e+00 0.000000000000000e+00 0.000000000000000e+00
0.000000000000000e+00 0.000000000000000e+00 0.000000000000000e+00
0.000000000000000e+00 0.000000000000000e+00 0.000000000000000e+00
0.000000000000000e+00 0.000000000000000e+00 0.000000000000000e+00
0.000000000000000e+00 0.000000000000000e+00 0.000000000000000e+00
0.000000000000000e+00 0.000000000000000e+00 0.000000000000000e+00
0.000000000000000e+00 0.000000000000000e+00 0.000000000000000e+00
0.000000000000000e+00 0.000000000000000e+00 0.000000000000000e+00
0.000000000000000e+00 0.000000000000000e+00 0.000000000000000e+00
0.000000000000000e+00 0.000000000000000e+00 0.000000000000000e+00
0.000000000000000e+00 0.000000000000000e+00 0.000000000000000e+00
0.000000000000000e+00 0.000000000000000e+00 0.000000000000000e+00
0.000000000000000e+00 0.000000000000000e+00 0.000000000000000e+00
0.000000000000000e+00 0.000000000000000e+00 0.000000000000000e+00
0.000000000000000e+00 0.000000000000000e+00 0.000000000000000e+00
0.000000000000000e+00 0.000000000000000e+00 0.000000000000000e+00
0.000000000000000e+00 0.000000000000000e+00 0.000000000000000e+00
0.000000000000000e+00 0.000000000000000e+00 0.000000000000000e+00
0.000000000000000e+00 0.000000000000000e+00 0.000000000000000e+00
0.000000000000000e+00 0.000000000000000e+00 0.000000000000000e+00
0.000000000000000e+00 0.000000000000000e+00 0.000000000000000e+00
0.000000000000000e+00 0.000000000000000e+00 0.000000000000000e+00
        </DataArray>
        <DataArray type="Float64" Name="element_owner" format="ascii">
2.000000000000000e+00
2.000000000000000e+00
2.000000000000000e+00
2.000000000000000e+00
2.000000000000000e+00
2.000000000000000e+00
2.000000000000000e+00
2.000000000000000e+00
2.000000000000000e+00
2.000000000000000e+00
2.000000000000000e+00
2.000000000000000e+00
2.000000000000000e+00
2.000000000000000e+00
2.000000000000000e+00
2.000000000000000e+00
2.000000000000000e+00
2.000000000000000e+00
2.000000000000000e+00
2.000000000000000e+00
2.000000000000000e+00
2.000000000000000e+00
2.000000000000000e+00
2.000000000000000e+00
2.000000000000000e+00
2.000000000000000e+00
2.000000000000000e+00
2.000000000000000e+00
2.000000000000000e+00
2.000000000000000e+00
2.000000000000000e+00
2.000000000000000e+00
2.000000000000000e+00
2.000000000000000e+00
2.000000000000000e+00
2.000000000000000e+00
2.000000000000000e+00
2.000000000000000e+00
2.000000000000000e+00
2.000000000000000e+00
2.000000000000000e+00
2.000000000000000e+00
2.000000000000000e+00
2.000000000000000e+00
2.000000000000000e+00
2.000000000000000e+00
2.000000000000000e+00
2.000000000000000e+00
2.000000000000000e+00
2.000000000000000e+00
2.000000000000000e+00
        </DataArray>
      </CellData>

    </Piece>
  </UnstructuredGrid>
</VTKFile>
