<?xml version="1.0" ?> 
<!-- 
# vtk DataFile Version 3.0
-->
<VTKFile type="UnstructuredGrid" version="0.1" compressor="vtkZLibDataCompressor" byte_order="LittleEndian">
  <UnstructuredGrid>
    <FieldData>
      <DataArray type="Float64" Name="TIME" NumberOfTuples="1" format="ascii">
0.000000000000000e+00 
      </DataArray>
    </FieldData>

    <Piece NumberOfPoints="300" NumberOfCells="50" >
      <Points>
        <DataArray type="Float64" NumberOfComponents="3" format="ascii">
-3.474528325560000e-01 6.997402324630000e-02 4.268522947020000e-01
-3.456967375964000e-01 9.844052570904001e-02 4.175477598919999e-01
-3.439406426368000e-01 1.269070281717800e-01 4.082432250819999e-01
-3.421845476772000e-01 1.553735306345200e-01 3.989386902720000e-01
-3.404284527176000e-01 1.838400330972600e-01 3.896341554620000e-01
-3.386723577580000e-01 2.123065355600000e-01 3.803296206520000e-01
-1.296501987090000e-01 -2.330665210680000e-01 4.817957189040000e-01
-1.215146452166400e-01 -2.075504975340000e-01 4.682773864484000e-01
-1.133790917242800e-01 -1.820344740000000e-01 4.547590539928000e-01
-1.052435382319200e-01 -1.565184504660000e-01 4.412407215372000e-01
-9.710798473955999e-02 -1.310024269320000e-01 4.277223890816000e-01
-8.897243124720000e-02 -1.054864033980000e-01 4.142040566260000e-01
-1.192739760820000e-01 -2.227087965790000e-01 3.570452405570000e-01
-1.208993858936000e-01 -1.983112676112000e-01 3.744268004182000e-01
-1.225247957052000e-01 -1.739137386434000e-01 3.918083602794000e-01
-1.241502055168000e-01 -1.495162096756000e-01 4.091899201405999e-01
-1.257756153284000e-01 -1.251186807078000e-01 4.265714800018000e-01
-1.274010251400000e-01 -1.007211517400000e-01 4.439530398630000e-01
2.212281405580000e-01 1.757612935250000e-01 1.265238240730000e-01
2.376131979172000e-01 2.006599503458000e-01 1.299277605952000e-01
2.539982552764000e-01 2.255586071666000e-01 1.333316971174000e-01
2.703833126356000e-01 2.504572639874000e-01 1.367356336396000e-01
2.867683699948000e-01 2.753559208082000e-01 1.401395701618000e-01
3.031534273540000e-01 3.002545776290000e-01 1.435435066840000e-01
3.106866240620000e-01 3.389780235400000e-01 4.788542567010000e-02
3.088235194130000e-01 3.408106842716000e-01 7.777137882048001e-02
3.069604147640000e-01 3.426433450032000e-01 1.076573319708600e-01
3.050973101150000e-01 3.444760057348000e-01 1.375432851212400e-01
3.032342054660000e-01 3.463086664664000e-01 1.674292382716200e-01
3.013711008170000e-01 3.481413271980000e-01 1.973151914220000e-01
-3.944755117300000e-01 3.434059789970000e-01 2.360734088060000e-01
-3.850948667566000e-01 3.696750300354000e-01 2.250307434834000e-01
-3.757142217832000e-01 3.959440810738000e-01 2.139880781608000e-01
-3.663335768098000e-01 4.222131321122000e-01 2.029454128382000e-01
-3.569529318364000e-01 4.484821831506000e-01 1.919027475156000e-01
-3.475722868630000e-01 4.747512341890000e-01 1.808600821930000e-01
2.114662561430000e-01 1.484248696270000e-01 9.857854289329999e-02
1.988650142678000e-01 1.705055805488000e-01 1.145049646002400e-01
1.862637723926000e-01 1.925862914706000e-01 1.304313863071800e-01
1.736625305174000e-01 2.146670023924000e-01 1.463578080141200e-01
1.610612886422000e-01 2.367477133142000e-01 1.622842297210600e-01
1.484600467670000e-01 2.588284242360000e-01 1.782106514280000e-01
2.773079055210000e-01 5.118095645790000e-02 3.320421229460000e-01
2.766638942849999e-01 8.116913760812001e-02 3.325845626516000e-01
2.760198830489999e-01 1.111573187583400e-01 3.331270023572000e-01
2.753758718129999e-01 1.411454999085600e-01 3.336694420628000e-01
2.747318605770000e-01 1.711336810587800e-01 3.342118817684000e-01
2.740878493410000e-01 2.011218622090000e-01 3.347543214740000e-01
8.529177019480000e-02 9.120130578950000e-02 1.987219896400000e-01
9.400442235884000e-02 1.194741964932000e-01 1.937487267756000e-01
1.027170745228800e-01 1.477470871969000e-01 1.887754639112000e-01
1.114297266869200e-01 1.760199779006000e-01 1.838022010468000e-01
1.201423788509600e-01 2.042928686043000e-01 1.788289381824000e-01
1.288550310150000e-01 2.325657593080000e-01 1.738556753180000e-01
-4.119306835360000e-01 -7.261889638000001e-02 4.270458422670000e-01
-4.081316800347999e-01 -6.227256853849999e-02 3.991438517897999e-01
-4.043326765335999e-01 -5.192624069700000e-02 3.712418613125999e-01
-4.005336730324000e-01 -4.157991285550000e-02 3.433398708354000e-01
-3.967346695312000e-01 -3.123358501400000e-02 3.154378803581999e-01
-3.929356660300000e-01 -2.088725717250000e-02 2.875358898810000e-01
-1.666782115940000e-01 3.654662312400000e-02 2.454100496110000e-01
-1.610826870130000e-01 6.365825357920001e-02 2.569707415767999e-01
-1.554871624320000e-01 9.076988403440001e-02 2.685314335426000e-01
-1.498916378510000e-01 1.178815144896000e-01 2.800921255084000e-01
-1.442961132700000e-01 1.449931449448000e-01 2.916528174742000e-01
-1.387005886890000e-01 1.721047754000000e-01 3.032135094400000e-01
-3.579758560490000e-01 -3.581423033270000e-01 1.781054984650000e-01
-3.522594458038000e-01 -3.303232622068000e-01 1.877710871726000e-01
-3.465430355586000e-01 -3.025042210866000e-01 1.974366758802000e-01
-3.408266253134000e-01 -2.746851799664000e-01 2.071022645878000e-01
-3.351102150682000e-01 -2.468661388462000e-01 2.167678532954000e-01
-3.293938048230000e-01 -2.190470977260000e-01 2.264334420030000e-01
-3.781972094660000e-01 2.897787218260000e-01 3.829577776380000e-01
-3.781716760556000e-01 3.142809760778000e-01 4.002678580716000e-01
-3.781461426452000e-01 3.387832303295999e-01 4.175779385052000e-01
-3.781206092348000e-01 3.632854845813999e-01 4.348880189388000e-01
-3.780950758243999e-01 3.877877388331999e-01 4.521980993724000e-01
-3.780695424140000e-01 4.122899930850000e-01 4.695081798060000e-01
-2.559258534960000e-01 -1.337802827370000e-01 1.921680281570000e-01
-2.435484049756000e-01 -1.213243274628000e-01 1.678442137700200e-01
-2.311709564552000e-01 -1.088683721886000e-01 1.435203993830400e-01
-2.187935079348000e-01 -9.641241691439999e-02 1.191965849960600e-01
-2.064160594144000e-01 -8.395646164019999e-02 9.487277060907999e-02
-1.940386108940000e-01 -7.150050636600000e-02 7.054895622210000e-02
2.973411287160000e-01 3.135221465020000e-01 4.481407802430000e-01
3.221721407034000e-01 3.282875404614000e-01 4.400535072230000e-01
3.470031526908000e-01 3.430529344208000e-01 4.319662342030000e-01
3.718341646782000e-01 3.578183283801999e-01 4.238789611830000e-01
3.966651766655999e-01 3.725837223396000e-01 4.157916881630000e-01
4.214961886530000e-01 3.873491162990000e-01 4.077044151430000e-01
-4.609612597000000e-02 2.852324657080000e-01 1.119203984700000e-01
-5.298212697490000e-02 3.055330470778000e-01 1.329077610056000e-01
-5.986812797980000e-02 3.258336284475999e-01 1.538951235412000e-01
-6.675412898469998e-02 3.461342098174000e-01 1.748824860768000e-01
-7.364012998960000e-02 3.664347911872000e-01 1.958698486124000e-01
-8.052613099450000e-02 3.867353725570000e-01 2.168572111480000e-01
1.201610273510000e-03 -1.387998750970000e-01 3.741951580650000e-01
1.622196091396801e-02 -1.147166130657000e-01 3.644799351353999e-01
3.124231155442600e-02 -9.063335103440000e-02 3.547647122058000e-01
4.626266219488399e-02 -6.655008900310000e-02 3.450494892761999e-01
6.128301283534200e-02 -4.246682697180000e-02 3.353342663466000e-01
7.630336347580000e-02 -1.838356494050000e-02 3.256190434170000e-01
-3.753413314690000e-01 2.672855425160000e-01 2.910377605280000e-01
-3.709482135566000e-01 2.855150310274000e-01 2.676201119777999e-01
-3.665550956442000e-01 3.037445195388000e-01 2.442024634276000e-01
-3.621619777317999e-01 3.219740080501999e-01 2.207848148774000e-01
-3.577688598194000e-01 3.402034965616000e-01 1.973671663272000e-01
-3.533757419070000e-01 3.584329850730000e-01 1.739495177770000e-01
-3.953257353230000e-01 -1.409969985920000e-01 3.724362760690000e-01
-3.960639817806000e-01 -1.405679907004000e-01 3.424484294576000e-01
-3.968022282382000e-01 -1.401389828088000e-01 3.124605828462000e-01
-3.975404746958000e-01 -1.397099749172000e-01 2.824727362348000e-01
-3.982787211534000e-01 -1.392809670256000e-01 2.524848896234000e-01
-3.990169676110000e-01 -1.388519591340000e-01 2.224970430120000e-01
-2.676496522150000e-01 -2.639811350360000e-01 3.018315288130000e-01
-2.603461203544000e-01 -2.432042134916000e-01 2.814605211430000e-01
-2.530425884938000e-01 -2.224272919472000e-01 2.610895134730000e-01
-2.457390566332000e-01 -2.016503704028000e-01 2.407185058030000e-01
-2.384355247726000e-01 -1.808734488584000e-01 2.203474981330000e-01
-2.311319929120000e-01 -1.600965273140000e-01 1.999764904630000e-01
-1.072840843020000e-01 1.006860963430000e-01 7.131087491309999e-02
-1.158714929834000e-01 1.090977081854000e-01 9.879725696587999e-02
-1.244589016648000e-01 1.175093200278000e-01 1.262836390186600e-01
-1.330463103462000e-01 1.259209318702000e-01 1.537700210714400e-01
-1.416337190276000e-01 1.343325437126000e-01 1.812564031242200e-01
-1.502211277090000e-01 1.427441555550000e-01 2.087427851770000e-01
-3.616476611330000e-01 2.600679280140000e-01 3.071040079650000e-01
-3.453489867750000e-01 2.698778977632000e-01 3.303013722049999e-01
-3.290503124170000e-01 2.796878675124000e-01 3.534987364450000e-01
-3.127516380590000e-01 2.894978372616000e-01 3.766961006850000e-01
-2.964529637010000e-01 2.993078070108000e-01 3.998934649250000e-01
-2.801542893430000e-01 3.091177767600000e-01 4.230908291650000e-01
-7.732985112030000e-02 3.416768040560000e-01 6.299791964880000e-02
-6.017551418832200e-02 3.661075097095999e-01 6.597606432156000e-02
-4.302117725634399e-02 3.905382153632000e-01 6.895420899431999e-02
-2.586684032436599e-02 4.149689210167999e-01 7.193235366707999e-02
-8.712503392387995e-03 4.393996266704000e-01 7.491049833984000e-02
8.441833539590000e-03 4.638303323240000e-01 7.788864301260000e-02
-3.051366319730000e-02 -2.620307154630000e-02 3.647010201930000e-01
-2.186756855205999e-02 -2.453669603738000e-02 3.360223131082000e-01
-1.322147390682000e-02 -2.287032052846000e-02 3.073436060233999e-01
-4.575379261580001e-03 -2.120394501954000e-02 2.786648989386000e-01
4.070715383660001e-03 -1.953756951062000e-02 2.499861918538000e-01
1.271681002890000e-02 -1.787119400170000e-02 2.213074847690000e-01
-3.843978480470000e-01 5.548787298590000e-02 2.233977009220000e-01
-3.741334360674000e-01 5.880117765847999e-02 2.513916977580000e-01
-3.638690240878000e-01 6.211448233106000e-02 2.793856945940000e-01
-3.536046121082000e-01 6.542778700363999e-02 3.073796914300000e-01
-3.433402001286000e-01 6.874109167621999e-02 3.353736882660001e-01
-3.330757881490000e-01 7.205439634880000e-02 3.633676851020000e-01
-4.634991708020000e-01 -8.240527731080000e-02 2.145267403600000e-01
-4.620395325978000e-01 -5.469456603267998e-02 2.259278778810000e-01
-4.605798943935999e-01 -2.698385475455999e-02 2.373290154020000e-01
-4.591202561894000e-01 7.268565235599989e-04 2.487301529230000e-01
-4.576606179852000e-01 2.843756780168001e-02 2.601312904440000e-01
-4.562009797810000e-01 5.614827907980000e-02 2.715324279650000e-01
2.260467063380000e-02 -3.226163429140000e-01 4.690431262930000e-01
6.744896386639994e-03 -2.971513823262000e-01 4.689853068476000e-01
-9.114877860519999e-03 -2.716864217384000e-01 4.689274874021999e-01
-2.497465210767999e-02 -2.462214611506000e-01 4.688696679568000e-01
-4.083442635484000e-02 -2.207565005628000e-01 4.688118485114000e-01
-5.669420060200000e-02 -1.952915399750000e-01 4.687540290660000e-01
-4.194733669420000e-01 -1.176509596720000e-01 3.504545266120000e-01
-4.165403110988000e-01 -1.061253295960400e-01 3.229126124670000e-01
-4.136072552556000e-01 -9.459969952007999e-02 2.953706983220000e-01
-4.106741994124000e-01 -8.307406944411999e-02 2.678287841770000e-01
-4.077411435691999e-01 -7.154843936815998e-02 2.402868700320000e-01
-4.048080877260000e-01 -6.002280929220000e-02 2.127449558870000e-01
6.579565235160000e-02 6.789311480610000e-02 2.187554189260000e-01
5.532863390473999e-02 8.355806295228001e-02 1.954090932106000e-01
4.486161545787999e-02 9.922301109846000e-02 1.720627674952000e-01
3.439459701102000e-02 1.148879592446400e-01 1.487164417798000e-01
2.392757856416000e-02 1.305529073908200e-01 1.253701160644000e-01
1.346056011730000e-02 1.462178555370000e-01 1.020237903490000e-01
-3.727820951490000e-01 1.636472441190000e-02 4.592324120230000e-01
-3.774247537660000e-01 1.948638043718000e-02 4.297586782144000e-01
-3.820674123830000e-01 2.260803646246000e-02 4.002849444058000e-01
-3.867100710000000e-01 2.572969248774000e-02 3.708112105972000e-01
-3.913527296170000e-01 2.885134851302000e-02 3.413374767886000e-01
-3.959953882340000e-01 3.197300453830000e-02 3.118637429800000e-01
-4.091266451740000e-01 4.839305262620000e-01 4.440243836310000e-01
-4.001493295376000e-01 4.849704861114000e-01 4.154179807205999e-01
-3.911720139011999e-01 4.860104459608000e-01 3.868115778101999e-01
-3.821946982648000e-01 4.870504058101999e-01 3.582051748998000e-01
-3.732173826284000e-01 4.880903656596000e-01 3.295987719894000e-01
-3.642400669920000e-01 4.891303255090000e-01 3.009923690790000e-01
7.834576965660001e-02 1.214474201370000e-01 2.826051491650000e-01
7.914716377891999e-02 1.485219287478000e-01 2.955019995924000e-01
7.994855790124000e-02 1.755964373586000e-01 3.083988500198000e-01
8.074995202355999e-02 2.026709459694000e-01 3.212957004472000e-01
8.155134614588000e-02 2.297454545802000e-01 3.341925508746000e-01
8.235274026820000e-02 2.568199631910000e-01 3.470894013020000e-01
1.552520118970000e-01 3.518762856340000e-01 2.448701524060000e-01
1.710527706698000e-01 3.477539670786000e-01 2.197038552620000e-01
1.868535294426000e-01 3.436316485232000e-01 1.945375581180000e-01
2.026542882154000e-01 3.395093299678000e-01 1.693712609740000e-01
2.184550469882000e-01 3.353870114124000e-01 1.442049638300000e-01
2.342558057610000e-01 3.312646928570000e-01 1.190386666860000e-01
3.153858193120000e-01 3.670547803070000e-01 4.161304783040000e-01
3.147739576110000e-01 3.723853196486000e-01 3.866141950760000e-01
3.141620959100000e-01 3.777158589902000e-01 3.570979118480000e-01
3.135502342090000e-01 3.830463983318000e-01 3.275816286200000e-01
3.129383725080000e-01 3.883769376734000e-01 2.980653453920000e-01
3.123265108070000e-01 3.937074770150000e-01 2.685490621640000e-01
-3.257715891020000e-02 1.888582580810000e-01 2.602978845150000e-01
-3.673262702666000e-02 2.042667597190000e-01 2.348949287420000e-01
-4.088809514311999e-02 2.196752613570000e-01 2.094919729690000e-01
-4.504356325958000e-02 2.350837629950000e-01 1.840890171960000e-01
-4.919903137603999e-02 2.504922646330000e-01 1.586860614230000e-01
-5.335449949250000e-02 2.659007662710000e-01 1.332831056500000e-01
2.206365238310000e-01 3.348747764210000e-01 1.136896539700000e-01
2.201583391332000e-01 3.648706282840000e-01 1.138318172648000e-01
2.196801544354000e-01 3.948664801470000e-01 1.139739805596000e-01
2.192019697376000e-01 4.248623320100000e-01 1.141161438544000e-01
2.187237850398000e-01 4.548581838730000e-01 1.142583071492000e-01
2.182456003420000e-01 4.848540357360000e-01 1.144004704440000e-01
-1.919317020840000e-01 3.143605619770000e-01 3.637170182460000e-01
-1.875001701904000e-01 3.415005542808000e-01 3.757079457676000e-01
-1.830686382968000e-01 3.686405465846000e-01 3.876988732892000e-01
-1.786371064032000e-01 3.957805388884000e-01 3.996898008107999e-01
-1.742055745096000e-01 4.229205311922000e-01 4.116807283324000e-01
-1.697740426160000e-01 4.500605234960000e-01 4.236716558540000e-01
2.358333143670000e-01 2.325120834070000e-01 3.471248674010000e-01
2.335897009120000e-01 2.326087322408000e-01 3.172090378510000e-01
2.313460874570000e-01 2.327053810746000e-01 2.872932083010000e-01
2.291024740020000e-01 2.328020299084000e-01 2.573773787510000e-01
2.268588605470000e-01 2.328986787422000e-01 2.274615492010000e-01
2.246152470920000e-01 2.329953275760000e-01 1.975457196510000e-01
1.487159969320000e-01 3.176098357540000e-01 3.269454063890000e-01
1.432674021250000e-01 3.325122416102000e-01 3.524057896210000e-01
1.378188073180000e-01 3.474146474664000e-01 3.778661728530000e-01
1.323702125110000e-01 3.623170533226000e-01 4.033265560850000e-01
1.269216177040000e-01 3.772194591788000e-01 4.287869393170000e-01
1.214730228970000e-01 3.921218650350000e-01 4.542473225490000e-01
1.480169530090000e-01 6.181504127130000e-02 4.851209177200000e-01
1.569090179802000e-01 6.887999671783999e-02 4.573537143123999e-01
1.658010829514000e-01 7.594495216438001e-02 4.295865109048000e-01
1.746931479226000e-01 8.300990761091999e-02 4.018193074972000e-01
1.835852128938000e-01 9.007486305746000e-02 3.740521040896000e-01
1.924772778650000e-01 9.713981850400000e-02 3.462849006820000e-01
2.927352566470000e-01 3.310620329850000e-01 2.355101715050000e-01
2.957680123944000e-01 3.605007471767999e-01 2.305944315498000e-01
2.988007681418000e-01 3.899394613685999e-01 2.256786915946000e-01
3.018335238892000e-01 4.193781755604000e-01 2.207629516394000e-01
3.048662796366000e-01 4.488168897522000e-01 2.158472116842000e-01
3.078990353840000e-01 4.782556039440000e-01 2.109314717290000e-01
6.634423987710000e-03 7.113852990640000e-02 1.753200566460000e-01
2.141008580918800e-02 9.723647993332001e-02 1.745605685766000e-01
3.618574763066600e-02 1.233344299602400e-01 1.738010805072000e-01
5.096140945214399e-02 1.494323799871600e-01 1.730415924378000e-01
6.573707127362199e-02 1.755303300140800e-01 1.722821043684000e-01
8.051273309510000e-02 2.016282800410000e-01 1.715226162990000e-01
4.397658798670000e-01 3.922471916350000e-01 4.561520989640000e-01
4.473045363176000e-01 3.978964379282000e-01 4.276695661548000e-01
4.548431927682000e-01 4.035456842214000e-01 3.991870333456000e-01
4.623818492188000e-01 4.091949305146000e-01 3.707045005364000e-01
4.699205056694000e-01 4.148441768078000e-01 3.422219677271999e-01
4.774591621200000e-01 4.204934231010000e-01 3.137394349180000e-01
-4.152831634230000e-01 -1.158504074160000e-01 3.797287563870000e-01
-4.151748296784000e-01 -8.689848594333999e-02 3.718690803856000e-01
-4.150664959338000e-01 -5.794656447067999e-02 3.640094043842000e-01
-4.149581621892000e-01 -2.899464299802000e-02 3.561497283828000e-01
-4.148498284445999e-01 -4.272152535999760e-05 3.482900523814000e-01
-4.147414947000000e-01 2.890919994730000e-02 3.404303763800000e-01
-1.825885249030000e-01 -4.089400205880000e-03 4.736125841540000e-01
-1.850342408994000e-01 8.298170423696002e-03 4.463992314173999e-01
-1.874799568958000e-01 2.068574105327200e-02 4.191858786808000e-01
-1.899256728922000e-01 3.307331168284799e-02 3.919725259442000e-01
-1.923713888886000e-01 4.546088231242400e-02 3.647591732076000e-01
-1.948171048850000e-01 5.784845294200000e-02 3.375458204710000e-01
-4.322546418810000e-01 3.782317510040000e-01 3.473713816650000e-01
-4.204653189992000e-01 3.886950570676000e-01 3.728964887599999e-01
-4.086759961174000e-01 3.991583631312001e-01 3.984215958550000e-01
-3.968866732356000e-01 4.096216691948000e-01 4.239467029499999e-01
-3.850973503538000e-01 4.200849752584000e-01 4.494718100450000e-01
-3.733080274720000e-01 4.305482813220000e-01 4.749969171400000e-01
-9.172397463020000e-02 8.476618336190000e-02 2.196024014690000e-01
-8.746876560601997e-02 1.008670667005200e-01 2.445554524224000e-01
-8.321355658183999e-02 1.169679500391400e-01 2.695085033758000e-01
-7.895834755766000e-02 1.330688333777600e-01 2.944615543292000e-01
-7.470313853348000e-02 1.491697167163800e-01 3.194146052826000e-01
-7.044792950930000e-02 1.652706000550000e-01 3.443676562360000e-01
3.478947303200000e-01 2.012580746040000e-02 1.839935101510000e-01
3.627853191186001e-01 4.397674062372001e-02 1.944531159020000e-01
3.776759079172000e-01 6.782767378704001e-02 2.049127216530000e-01
3.925664967158000e-01 9.167860695035999e-02 2.153723274040000e-01
4.074570855144000e-01 1.155295401136800e-01 2.258319331550000e-01
4.223476743130000e-01 1.393804732770000e-01 2.362915389060000e-01
-3.982948120090000e-01 -2.768563499130000e-01 2.986259979580000e-01
-3.776411319526000e-01 -2.622036730774000e-01 2.825410807470000e-01
-3.569874518962000e-01 -2.475509962418000e-01 2.664561635360000e-01
-3.363337718398000e-01 -2.328983194062000e-01 2.503712463250000e-01
-3.156800917834000e-01 -2.182456425706000e-01 2.342863291140000e-01
-2.950264117270000e-01 -2.035929657350000e-01 2.182014119030000e-01
-3.907598095850000e-01 3.611044407410000e-01 3.596194354880000e-01
-3.837476910176000e-01 3.823549059598000e-01 3.396382463046000e-01
-3.767355724502000e-01 4.036053711786000e-01 3.196570571212000e-01
-3.697234538828000e-01 4.248558363974000e-01 2.996758679378000e-01
-3.627113353154000e-01 4.461063016162000e-01 2.796946787544000e-01
-3.556992167480000e-01 4.673567668350000e-01 2.597134895710000e-01
        </DataArray>
      </Points>

      <Cells>
        <DataArray type="Int32" Name="connectivity" format="ascii">
0 1 2 3 4 5 6 7 8 9 10 11 12 13 14 15 16 17 18 19 20 21 22 23 24 25 26 27 28 29 30 31 32 33 34 35 36 37 38 39 40 41 42 43 44 45 46 47 48 49 50 51 52 53 54 55 56 57 58 59 60 61 62 63 64 65 66 67 68 69 70 71 72 73 74 75 76 77 78 79 80 81 82 83 84 85 86 87 88 89 90 91 92 93 94 95 96 97 98 99 100 101 102 103 104 105 106 107 108 109 110 111 112 113 114 115 116 117 118 119 120 121 122 123 124 125 126 127 128 129 130 131 132 133 134 135 136 137 138 139 140 141 142 143 144 145 146 147 148 149 150 151 152 153 154 155 156 157 158 159 160 161 162 163 164 165 166 167 168 169 170 171 172 173 174 175 176 177 178 179 180 181 182 183 184 185 186 187 188 189 190 191 192 193 194 195 196 197 198 199 200 201 202 203 204 205 206 207 208 209 210 211 212 213 214 215 216 217 218 219 220 221 222 223 224 225 226 227 228 229 230 231 232 233 234 235 236 237 238 239 240 241 242 243 244 245 246 247 248 249 250 251 252 253 254 255 256 257 258 259 260 261 262 263 264 265 266 267 268 269 270 271 272 273 274 275 276 277 278 279 280 281 282 283 284 285 286 287 288 289 290 291 292 293 294 295 296 297 298 299 
        </DataArray>
        <DataArray type="Int32" Name="offsets" format="ascii">
6 12 18 24 30 36 42 48 54 60 66 72 78 84 90 96 102 108 114 120 126 132 138 144 150 156 162 168 174 180 186 192 198 204 210 216 222 228 234 240 246 252 258 264 270 276 282 288 294 300 
        </DataArray>
        <DataArray type="UInt8" Name="types" format="ascii">
4 4 4 4 4 4 4 4 4 4 4 4 4 4 4 4 4 4 4 4 4 4 4 4 4 4 4 4 4 4 4 4 4 4 4 4 4 4 4 4 4 4 4 4 4 4 4 4 4 4 
        </DataArray>
      </Cells>

  <CellData>
        <DataArray type="Float64" Name="cross_section_radius" format="ascii">
5.000000000000000e-03
5.000000000000000e-03
5.000000000000000e-03
5.000000000000000e-03
5.000000000000000e-03
5.000000000000000e-03
5.000000000000000e-03
5.000000000000000e-03
5.000000000000000e-03
5.000000000000000e-03
5.000000000000000e-03
5.000000000000000e-03
5.000000000000000e-03
5.000000000000000e-03
5.000000000000000e-03
5.000000000000000e-03
5.000000000000000e-03
5.000000000000000e-03
5.000000000000000e-03
5.000000000000000e-03
5.000000000000000e-03
5.000000000000000e-03
5.000000000000000e-03
5.000000000000000e-03
5.000000000000000e-03
5.000000000000000e-03
5.000000000000000e-03
5.000000000000000e-03
5.000000000000000e-03
5.000000000000000e-03
5.000000000000000e-03
5.000000000000000e-03
5.000000000000000e-03
5.000000000000000e-03
5.000000000000000e-03
5.000000000000000e-03
5.000000000000000e-03
5.000000000000000e-03
5.000000000000000e-03
5.000000000000000e-03
5.000000000000000e-03
5.000000000000000e-03
5.000000000000000e-03
5.000000000000000e-03
5.000000000000000e-03
5.000000000000000e-03
5.000000000000000e-03
5.000000000000000e-03
5.000000000000000e-03
5.000000000000000e-03
        </DataArray>
        <DataArray type="Float64" Name="element_ghosting" NumberOfComponents="3" format="ascii">
0.000000000000000e+00 0.000000000000000e+00 0.000000000000000e+00
0.000000000000000e+00 0.000000000000000e+00 0.000000000000000e+00
0.000000000000000e+00 0.000000000000000e+00 0.000000000000000e+00
0.000000000000000e+00 0.000000000000000e+00 0.000000000000000e+00
0.000000000000000e+00 0.000000000000000e+00 0.000000000000000e+00
0.000000000000000e+00 0.000000000000000e+00 0.000000000000000e+00
0.000000000000000e+00 0.000000000000000e+00 0.000000000000000e+00
0.000000000000000e+00 0.000000000000000e+00 0.000000000000000e+00
0.000000000000000e+00 0.000000000000000e+00 0.000000000000000e+00
0.000000000000000e+00 0.000000000000000e+00 0.000000000000000e+00
0.000000000000000e+00 0.000000000000000e+00 0.000000000000000e+00
0.000000000000000e+00 0.000000000000000e+00 0.000000000000000e+00
0.000000000000000e+00 0.000000000000000e+00 0.000000000000000e+00
0.000000000000000e+00 0.000000000000000e+00 0.000000000000000e+00
0.000000000000000e+00 0.000000000000000e+00 0.000000000000000e+00
0.000000000000000e+00 0.000000000000000e+00 0.000000000000000e+00
0.000000000000000e+00 0.000000000000000e+00 0.000000000000000e+00
0.000000000000000e+00 0.000000000000000e+00 0.000000000000000e+00
0.000000000000000e+00 0.000000000000000e+00 0.000000000000000e+00
0.000000000000000e+00 0.000000000000000e+00 0.000000000000000e+00
0.000000000000000e+00 0.000000000000000e+00 0.000000000000000e+00
0.000000000000000e+00 0.000000000000000e+00 0.000000000000000e+00
0.000000000000000e+00 0.000000000000000e+00 0.000000000000000e+00
0.000000000000000e+00 0.000000000000000e+00 0.000000000000000e+00
0.000000000000000e+00 0.000000000000000e+00 0.000000000000000e+00
0.000000000000000e+00 0.000000000000000e+00 0.000000000000000e+00
0.000000000000000e+00 0.000000000000000e+00 0.000000000000000e+00
0.000000000000000e+00 0.000000000000000e+00 0.000000000000000e+00
0.000000000000000e+00 0.000000000000000e+00 0.000000000000000e+00
0.000000000000000e+00 0.000000000000000e+00 0.000000000000000e+00
0.000000000000000e+00 0.000000000000000e+00 0.000000000000000e+00
0.000000000000000e+00 0.000000000000000e+00 0.000000000000000e+00
0.000000000000000e+00 0.000000000000000e+00 0.000000000000000e+00
0.000000000000000e+00 0.000000000000000e+00 0.000000000000000e+00
0.000000000000000e+00 0.000000000000000e+00 0.000000000000000e+00
0.000000000000000e+00 0.000000000000000e+00 0.000000000000000e+00
0.000000000000000e+00 0.000000000000000e+00 0.000000000000000e+00
0.000000000000000e+00 0.000000000000000e+00 0.000000000000000e+00
0.000000000000000e+00 0.000000000000000e+00 0.000000000000000e+00
0.000000000000000e+00 0.000000000000000e+00 0.000000000000000e+00
0.000000000000000e+00 0.000000000000000e+00 0.000000000000000e+00
0.000000000000000e+00 0.000000000000000e+00 0.000000000000000e+00
0.000000000000000e+00 0.000000000000000e+00 0.000000000000000e+00
0.000000000000000e+00 0.000000000000000e+00 0.000000000000000e+00
0.000000000000000e+00 0.000000000000000e+00 0.000000000000000e+00
0.000000000000000e+00 0.000000000000000e+00 0.000000000000000e+00
0.000000000000000e+00 0.000000000000000e+00 0.000000000000000e+00
0.000000000000000e+00 0.000000000000000e+00 0.000000000000000e+00
0.000000000000000e+00 0.000000000000000e+00 0.000000000000000e+00
0.000000000000000e+00 0.000000000000000e+00 0.000000000000000e+00
        </DataArray>
        <DataArray type="Float64" Name="element_owner" format="ascii">
0.000000000000000e+00
0.000000000000000e+00
0.000000000000000e+00
0.000000000000000e+00
0.000000000000000e+00
0.000000000000000e+00
0.000000000000000e+00
0.000000000000000e+00
0.000000000000000e+00
0.000000000000000e+00
0.000000000000000e+00
0.000000000000000e+00
0.000000000000000e+00
0.000000000000000e+00
0.000000000000000e+00
0.000000000000000e+00
0.000000000000000e+00
0.000000000000000e+00
0.000000000000000e+00
0.000000000000000e+00
0.000000000000000e+00
0.000000000000000e+00
0.000000000000000e+00
0.000000000000000e+00
0.000000000000000e+00
0.000000000000000e+00
0.000000000000000e+00
0.000000000000000e+00
0.000000000000000e+00
0.000000000000000e+00
0.000000000000000e+00
0.000000000000000e+00
0.000000000000000e+00
0.000000000000000e+00
0.000000000000000e+00
0.000000000000000e+00
0.000000000000000e+00
0.000000000000000e+00
0.000000000000000e+00
0.000000000000000e+00
0.000000000000000e+00
0.000000000000000e+00
0.000000000000000e+00
0.000000000000000e+00
0.000000000000000e+00
0.000000000000000e+00
0.000000000000000e+00
0.000000000000000e+00
0.000000000000000e+00
0.000000000000000e+00
        </DataArray>
      </CellData>

    </Piece>
  </UnstructuredGrid>
</VTKFile>
