<?xml version="1.0" ?> 
<!-- 
# vtk DataFile Version 3.0
-->
<VTKFile type="UnstructuredGrid" version="0.1" compressor="vtkZLibDataCompressor" byte_order="LittleEndian">
  <UnstructuredGrid>
    <FieldData>
      <DataArray type="Float64" Name="TIME" NumberOfTuples="1" format="ascii">
0.000000000000000e+00 
      </DataArray>
    </FieldData>

    <Piece NumberOfPoints="324" NumberOfCells="54" >
      <Points>
        <DataArray type="Float64" NumberOfComponents="3" format="ascii">
-4.736081566420000e-01 -9.985422671220000e-02 -1.500534036300000e-01
-4.593891127730000e-01 -7.344708602135998e-02 -1.493593488852000e-01
-4.451700689040000e-01 -4.703994533051999e-02 -1.486652941404000e-01
-4.309510250350000e-01 -2.063280463968000e-02 -1.479712393956000e-01
-4.167319811660000e-01 5.774336051160001e-03 -1.472771846508000e-01
-4.025129372970000e-01 3.218147674200000e-02 -1.465831299060000e-01
-1.288718479110000e-01 1.568455638170000e-01 -6.346670210360000e-02
-1.193491605435400e-01 1.852315587798000e-01 -6.535183214540000e-02
-1.098264731760800e-01 2.136175537426000e-01 -6.723696218720000e-02
-1.003037858086200e-01 2.420035487054000e-01 -6.912209222900000e-02
-9.078109844115999e-02 2.703895436682000e-01 -7.100722227080000e-02
-8.125841107369999e-02 2.987755386310000e-01 -7.289235231260000e-02
-4.501603284700000e-01 2.467504734290000e-01 -3.057176903520000e-01
-4.542683979146000e-01 2.721457182694000e-01 -3.211515915090001e-01
-4.583764673592000e-01 2.975409631098000e-01 -3.365854926660000e-01
-4.624845368037999e-01 3.229362079502000e-01 -3.520193938230000e-01
-4.665926062483999e-01 3.483314527906000e-01 -3.674532949800000e-01
-4.707006756930000e-01 3.737266976310000e-01 -3.828871961370000e-01
-2.585282494620000e-01 -1.293301703550000e-01 -4.179135269600000e-01
-2.574774395527999e-01 -1.017695809127740e-01 -4.061105735954000e-01
-2.564266296436000e-01 -7.420899147054799e-02 -3.943076202308000e-01
-2.553758197344000e-01 -4.664840202832200e-02 -3.825046668662000e-01
-2.543250098252000e-01 -1.908781258609600e-02 -3.707017135016000e-01
-2.532741999160000e-01 8.472776856130000e-03 -3.588987601370000e-01
-2.565624818120000e-01 -1.222214204190000e-01 -2.246708469550000e-01
-2.637378884127999e-01 -9.978891103887999e-02 -2.060887032944000e-01
-2.709132950136000e-01 -7.735640165875998e-02 -1.875065596338000e-01
-2.780887016144000e-01 -5.492389227863999e-02 -1.689244159732000e-01
-2.852641082152000e-01 -3.249138289851999e-02 -1.503422723126000e-01
-2.924395148160000e-01 -1.005887351840000e-02 -1.317601286520000e-01
-5.944945469460000e-02 -1.442093557530000e-01 -4.734426788190000e-01
-5.387809954418000e-02 -1.187560743043200e-01 -4.585735677061999e-01
-4.830674439376000e-02 -9.330279285564000e-02 -4.437044565934000e-01
-4.273538924334000e-02 -6.784951140696001e-02 -4.288353454806000e-01
-3.716403409292000e-02 -4.239622995827999e-02 -4.139662343678000e-01
-3.159267894250000e-02 -1.694294850960000e-02 -3.990971232550000e-01
-3.885215797610000e-01 -1.817232921760000e-01 -2.085173393810000e-01
-3.756994505422000e-01 -1.584917930764200e-01 -2.225134264016000e-01
-3.628773213233999e-01 -1.352602939768400e-01 -2.365095134222000e-01
-3.500551921046000e-01 -1.120287948772600e-01 -2.505056004428000e-01
-3.372330628858000e-01 -8.879729577767999e-02 -2.645016874634000e-01
-3.244109336670000e-01 -6.556579667810000e-02 -2.784977744840000e-01
-4.507522597230000e-01 -2.853570656450000e-01 -2.723773245530000e-01
-4.352460998601999e-01 -2.612954236342000e-01 -2.633997753304000e-01
-4.197399399974000e-01 -2.372337816234000e-01 -2.544222261078000e-01
-4.042337801346000e-01 -2.131721396126000e-01 -2.454446768852000e-01
-3.887276202718000e-01 -1.891104976018000e-01 -2.364671276626000e-01
-3.732214604090000e-01 -1.650488555910000e-01 -2.274895784400000e-01
-4.019692764390000e-01 -9.440884807350000e-02 -3.841542974800000e-01
-4.040138690496000e-01 -6.450087580119999e-02 -3.853087824804000e-01
-4.060584616602000e-01 -3.459290352889999e-02 -3.864632674808000e-01
-4.081030542708000e-01 -4.684931256600008e-03 -3.876177524812000e-01
-4.101476468814000e-01 2.522304101570001e-02 -3.887722374816000e-01
-4.121922394920000e-01 5.513101328800000e-02 -3.899267224820000e-01
-4.662702105690000e-01 -3.756551732530000e-01 4.603213500190000e-02
-4.532472161300000e-01 -3.489423125556000e-01 4.193034402648000e-02
-4.402242216910000e-01 -3.222294518582000e-01 3.782855305106000e-02
-4.272012272520000e-01 -2.955165911608000e-01 3.372676207563999e-02
-4.141782328130000e-01 -2.688037304634000e-01 2.962497110022000e-02
-4.011552383740000e-01 -2.420908697660000e-01 2.552318012480000e-02
-4.355573766750000e-01 -2.466953916310000e-01 -2.018691584880000e-02
-4.291866975795999e-01 -2.255396739120000e-01 -4.048100502904001e-02
-4.228160184842000e-01 -2.043839561930000e-01 -6.077509420928000e-02
-4.164453393888000e-01 -1.832282384740000e-01 -8.106918338951999e-02
-4.100746602934000e-01 -1.620725207550000e-01 -1.013632725697600e-01
-4.037039811980000e-01 -1.409168030360000e-01 -1.216573617500000e-01
-2.835770381700000e-01 -9.648914680530001e-02 -1.615746016640000e-01
-2.675986249637999e-01 -7.351210649303999e-02 -1.723795047130000e-01
-2.516202117576000e-01 -5.053506618077999e-02 -1.831844077620000e-01
-2.356417985514000e-01 -2.755802586852001e-02 -1.939893108110000e-01
-2.196633853452000e-01 -4.580985556259997e-03 -2.047942138600000e-01
-2.036849721390000e-01 1.839605475600000e-02 -2.155991169090000e-01
-4.624599208300000e-01 -1.103295781450000e-01 -3.460989252680000e-01
-4.667281359404000e-01 -8.078217813467999e-02 -3.431436769882000e-01
-4.709963510508000e-01 -5.123477812435998e-02 -3.401884287084000e-01
-4.752645661612000e-01 -2.168737811404001e-02 -3.372331804286000e-01
-4.795327812716000e-01 7.860021896280003e-03 -3.342779321488000e-01
-4.838009963820000e-01 3.740742190660000e-02 -3.313226838690000e-01
-4.706868753350000e-01 1.960218796040000e-01 -2.352511333100000e-01
-4.739999780159999e-01 2.256275208744000e-01 -2.317114503298000e-01
-4.773130806970000e-01 2.552331621448000e-01 -2.281717673496000e-01
-4.806261833780000e-01 2.848388034152000e-01 -2.246320843694000e-01
-4.839392860589999e-01 3.144444446856000e-01 -2.210924013892000e-01
-4.872523887400000e-01 3.440500859560000e-01 -2.175527184090000e-01
-1.192388446770000e-01 2.629354400910000e-01 -4.864075935220000e-01
-1.209541211556000e-01 2.913160958970000e-01 -4.768370030162000e-01
-1.226693976342000e-01 3.196967517030000e-01 -4.672664125104000e-01
-1.243846741128000e-01 3.480774075090000e-01 -4.576958220046000e-01
-1.260999505914000e-01 3.764580633150000e-01 -4.481252314988000e-01
-1.278152270700000e-01 4.048387191210000e-01 -4.385546409930000e-01
-2.115346417980000e-01 5.223544869520000e-02 -2.182910425370000e-02
-2.209741406270000e-01 7.686519227256000e-02 -3.612146561122000e-02
-2.304136394560000e-01 1.014949358499200e-01 -5.041382696874000e-02
-2.398531382850000e-01 1.261246794272800e-01 -6.470618832625999e-02
-2.492926371140000e-01 1.507544230046400e-01 -7.899854968377999e-02
-2.587321359430000e-01 1.753841665820000e-01 -9.329091104130000e-02
-4.019339950770000e-01 1.212872443690000e-01 -1.931241234760000e-01
-3.826687730908001e-01 1.417462142782000e-01 -2.036256363234000e-01
-3.634035511046000e-01 1.622051841874000e-01 -2.141271491708000e-01
-3.441383291184000e-01 1.826641540966000e-01 -2.246286620182000e-01
-3.248731071322000e-01 2.031231240058000e-01 -2.351301748656000e-01
-3.056078851460000e-01 2.235820939150000e-01 -2.456316877130000e-01
-2.930772943850000e-01 3.385402542490000e-01 -3.412050466290000e-01
-2.852635738970000e-01 3.387377208904000e-01 -3.122411591299999e-01
-2.774498534090000e-01 3.389351875318000e-01 -2.832772716310000e-01
-2.696361329210000e-01 3.391326541732000e-01 -2.543133841320000e-01
-2.618224124330000e-01 3.393301208146000e-01 -2.253494966330000e-01
-2.540086919450000e-01 3.395275874560000e-01 -1.963856091340000e-01
-4.664552781520000e-01 -2.633014580710000e-03 -1.571589001780000e-01
-4.657226850255999e-01 1.479288595907201e-02 -1.815679414882000e-01
-4.649900918992000e-01 3.221878649885401e-02 -2.059769827984000e-01
-4.642574987727999e-01 4.964468703863600e-02 -2.303860241086000e-01
-4.635249056464000e-01 6.707058757841801e-02 -2.547950654188000e-01
-4.627923125200000e-01 8.449648811820000e-02 -2.792041067290000e-01
-7.808105587430000e-02 -3.623369071070000e-02 -1.569431071400000e-01
-6.210897820176199e-02 -2.282263477925999e-02 -1.353784065016200e-01
-4.613690052922399e-02 -9.411578847819995e-03 -1.138137058632400e-01
-3.016482285668601e-02 3.999477083619996e-03 -9.224900522485999e-02
-1.419274518414800e-02 1.741053301506000e-02 -7.068430458647999e-02
1.779332488390000e-03 3.082158894650000e-02 -4.911960394810000e-02
-6.783635472480000e-02 3.989420889820000e-01 -3.047539907280000e-01
-7.720254114663999e-02 4.091276423595999e-01 -2.781357816542001e-01
-8.656872756848000e-02 4.193131957371999e-01 -2.515175725804000e-01
-9.593491399031998e-02 4.294987491148000e-01 -2.248993635066000e-01
-1.053011004121600e-01 4.396843024924000e-01 -1.982811544328000e-01
-1.146672868340000e-01 4.498698558700000e-01 -1.716629453590000e-01
-4.580728154360000e-01 -3.046261051850000e-01 1.136786313500000e-01
-4.487201934075999e-01 -2.858212198057999e-01 9.225656919261199e-02
-4.393675713792000e-01 -2.670163344265999e-01 7.083450703522400e-02
-4.300149493507999e-01 -2.482114490474000e-01 4.941244487783600e-02
-4.206623273224001e-01 -2.294065636682000e-01 2.799038272044800e-02
-4.113097052940000e-01 -2.106016782890000e-01 6.568320563060000e-03
-3.531860723640000e-02 -9.989680923670000e-02 -2.503958596280000e-01
-2.313620849169999e-02 -7.309100668733999e-02 -2.561437384116000e-01
-1.095380974700000e-02 -4.628520413797999e-02 -2.618916171952000e-01
1.228588997699996e-03 -1.947940158862000e-02 -2.676394959788000e-01
1.341098774240000e-02 7.326400960740002e-03 -2.733873747624000e-01
2.559338648710000e-02 3.413220351010000e-02 -2.791352535460000e-01
1.437754377540000e-01 -2.362827712830000e-01 -2.855717869750000e-01
[...]
  <CellData>
        <DataArray type="Float64" Name="cross_section_radius" format="ascii">
5.000000000000000e-03
5.000000000000000e-03
5.000000000000000e-03
5.000000000000000e-03
5.000000000000000e-03
5.000000000000000e-03
5.000000000000000e-03
5.000000000000000e-03
5.000000000000000e-03
5.000000000000000e-03
5.000000000000000e-03
5.000000000000000e-03
5.000000000000000e-03
5.000000000000000e-03
5.000000000000000e-03
5.000000000000000e-03
5.000000000000000e-03
5.000000000000000e-03
5.000000000000000e-03
5.000000000000000e-03
5.000000000000000e-03
5.000000000000000e-03
5.000000000000000e-03
5.000000000000000e-03
5.000000000000000e-03
5.000000000000000e-03
5.000000000000000e-03
5.000000000000000e-03
5.000000000000000e-03
5.000000000000000e-03
5.000000000000000e-03
5.000000000000000e-03
5.000000000000000e-03
5.000000000000000e-03
5.000000000000000e-03
5.000000000000000e-03
5.000000000000000e-03
5.000000000000000e-03
5.000000000000000e-03
5.000000000000000e-03
5.000000000000000e-03
5.000000000000000e-03
5.000000000000000e-03
5.000000000000000e-03
5.000000000000000e-03
5.000000000000000e-03
5.000000000000000e-03
5.000000000000000e-03
5.000000000000000e-03
5.000000000000000e-03
5.000000000000000e-03
5.000000000000000e-03
5.000000000000000e-03
5.000000000000000e-03
        </DataArray>
        <DataArray type="Float64" Name="element_ghosting" NumberOfComponents="3" format="ascii">
0.000000000000000e+00 0.000000000000000e+00 0.000000000000000e+00
0.000000000000000e+00 0.000000000000000e+00 0.000000000000000e+00
0.000000000000000e+00 0.000000000000000e+00 0.000000000000000e+00
0.000000000000000e+00 0.000000000000000e+00 0.000000000000000e+00
0.000000000000000e+00 0.000000000000000e+00 0.000000000000000e+00
0.000000000000000e+00 0.000000000000000e+00 0.000000000000000e+00
0.000000000000000e+00 0.000000000000000e+00 0.000000000000000e+00
0.000000000000000e+00 0.000000000000000e+00 0.000000000000000e+00
0.000000000000000e+00 0.000000000000000e+00 0.000000000000000e+00
0.000000000000000e+00 0.000000000000000e+00 0.000000000000000e+00
0.000000000000000e+00 0.000000000000000e+00 0.000000000000000e+00
0.000000000000000e+00 0.000000000000000e+00 0.000000000000000e+00
0.000000000000000e+00 0.000000000000000e+00 0.000000000000000e+00
0.000000000000000e+00 0.000000000000000e+00 0.000000000000000e+00
0.000000000000000e+00 0.000000000000000e+00 0.000000000000000e+00
0.000000000000000e+00 0.000000000000000e+00 0.000000000000000e+00
0.000000000000000e+00 0.000000000000000e+00 0.000000000000000e+00
0.000000000000000e+00 0.000000000000000e+00 0.000000000000000e+00
0.000000000000000e+00 0.000000000000000e+00 0.000000000000000e+00
0.000000000000000e+00 0.000000000000000e+00 0.000000000000000e+00
0.000000000000000e+00 0.000000000000000e+00 0.000000000000000e+00
0.000000000000000e+00 0.000000000000000e+00 0.000000000000000e+00
0.000000000000000e+00 0.000000000000000e+00 0.000000000000000e+00
0.000000000000000e+00 0.000000000000000e+00 0.000000000000000e+00
0.000000000000000e+00 0.000000000000000e+00 0.000000000000000e+00
0.000000000000000e+00 0.000000000000000e+00 0.000000000000000e+00
0.000000000000000e+00 0.000000000000000e+00 0.000000000000000e+00
0.000000000000000e+00 0.000000000000000e+00 0.000000000000000e+00
0.000000000000000e+00 0.000000000000000e+00 0.000000000000000e+00
0.000000000000000e+00 0.000000000000000e+00 0.000000000000000e+00
0.000000000000000e+00 0.000000000000000e+00 0.000000000000000e+00
0.000000000000000e+00 0.000000000000000e+00 0.000000000000000e+00
0.000000000000000e+00 0.000000000000000e+00 0.000000000000000e+00
0.000000000000000e+00 0.000000000000000e+00 0.000000000000000e+00
0.000000000000000e+00 0.000000000000000e+00 0.000000000000000e+00
0.000000000000000e+00 0.000000000000000e+00 0.000000000000000e+00
0.000000000000000e+00 0.000000000000000e+00 0.000000000000000e+00
0.000000000000000e+00 0.000000000000000e+00 0.000000000000000e+00
0.000000000000000e+00 0.000000000000000e+00 0.000000000000000e+00
0.000000000000000e+00 0.000000000000000e+00 0.000000000000000e+00
0.000000000000000e+00 0.000000000000000e+00 0.000000000000000e+00
0.000000000000000e+00 0.000000000000000e+00 0.000000000000000e+00
0.000000000000000e+00 0.000000000000000e+00 0.000000000000000e+00
0.000000000000000e+00 0.000000000000000e+00 0.000000000000000e+00
0.000000000000000e+00 0.000000000000000e+00 0.000000000000000e+00
0.000000000000000e+00 0.000000000000000e+00 0.000000000000000e+00
0.000000000000000e+00 0.000000000000000e+00 0.000000000000000e+00
0.000000000000000e+00 0.000000000000000e+00 0.000000000000000e+00
0.000000000000000e+00 0.000000000000000e+00 0.000000000000000e+00
0.000000000000000e+00 0.000000000000000e+00 0.000000000000000e+00
0.000000000000000e+00 0.000000000000000e+00 0.000000000000000e+00
0.000000000000000e+00 0.000000000000000e+00 0.000000000000000e+00
0.000000000000000e+00 0.000000000000000e+00 0.000000000000000e+00
0.000000000000000e+00 0.000000000000000e+00 0.000000000000000e+00
        </DataArray>
        <DataArray type="Float64" Name="element_owner" format="ascii">
1.000000000000000e+00
1.000000000000000e+00
1.000000000000000e+00
1.000000000000000e+00
1.000000000000000e+00
1.000000000000000e+00
1.000000000000000e+00
1.000000000000000e+00
1.000000000000000e+00
1.000000000000000e+00
1.000000000000000e+00
1.000000000000000e+00
1.000000000000000e+00
1.000000000000000e+00
1.000000000000000e+00
1.000000000000000e+00
1.000000000000000e+00
1.000000000000000e+00
1.000000000000000e+00
1.000000000000000e+00
1.000000000000000e+00
1.000000000000000e+00
1.000000000000000e+00
1.000000000000000e+00
1.000000000000000e+00
1.000000000000000e+00
1.000000000000000e+00
1.000000000000000e+00
1.000000000000000e+00
1.000000000000000e+00
1.000000000000000e+00
1.000000000000000e+00
1.000000000000000e+00
1.000000000000000e+00
1.000000000000000e+00
1.000000000000000e+00
1.000000000000000e+00
1.000000000000000e+00
1.000000000000000e+00
1.000000000000000e+00
1.000000000000000e+00
1.000000000000000e+00
1.000000000000000e+00
1.000000000000000e+00
1.000000000000000e+00
1.000000000000000e+00
1.000000000000000e+00
1.000000000000000e+00
1.000000000000000e+00
1.000000000000000e+00
1.000000000000000e+00
1.000000000000000e+00
1.000000000000000e+00
1.000000000000000e+00
        </DataArray>
      </CellData>

    </Piece>
  </UnstructuredGrid>
</VTKFile>
