<?xml version="1.0" ?> 
<!-- 
# vtk DataFile Version 3.0
-->
<VTKFile type="UnstructuredGrid" version="0.1" compressor="vtkZLibDataCompressor" byte_order="LittleEndian">
  <UnstructuredGrid>
    <FieldData>
      <DataArray type="Float64" Name="TIME" NumberOfTuples="1" format="ascii">
1.000000000000000e-03 
      </DataArray>
    </FieldData>

    <Piece NumberOfPoints="324" NumberOfCells="54" >
      <Points>
        <DataArray type="Float64" NumberOfComponents="3" format="ascii">
-4.734644974748719e-01 -9.946853046864346e-02 -1.500110885311018e-01
-4.592546739294704e-01 -7.304765896561850e-02 -1.493168709189353e-01
-4.450397862726108e-01 -4.661737156536673e-02 -1.486224059007856e-01
-4.308232105785983e-01 -2.018394553270604e-02 -1.479278584139748e-01
-4.166083229217388e-01 6.246341867545736e-03 -1.472333933958251e-01
-4.023984993763373e-01 3.266721337057068e-02 -1.465391757836586e-01
-1.288273886058787e-01 1.574736944851020e-01 -6.344817195946136e-02
-1.193128924926187e-01 1.858731086366496e-01 -6.533171998749944e-02
-1.097940064372070e-01 2.142856261395235e-01 -6.721613707542091e-02
-1.002736570677449e-01 2.427025114261727e-01 -6.910084384997019e-02
-9.075477101233326e-02 2.711150289290465e-01 -7.098526093789168e-02
-8.124027489907323e-02 2.995144430805942e-01 -7.286880896592976e-02
-4.500268190663782e-01 2.474761584294863e-01 -3.056316359597822e-01
-4.541319692687994e-01 2.728868858666610e-01 -3.210546130826689e-01
-4.582384628012986e-01 2.983059284671765e-01 -3.364826370730366e-01
-4.623454041104905e-01 3.237277427888055e-01 -3.519123433525647e-01
-4.664518976429897e-01 3.491467853893209e-01 -3.673403673429325e-01
-4.705570478454110e-01 3.745575128264957e-01 -3.827633444658191e-01
-2.584577989704238e-01 -1.289697396625474e-01 -4.177895229112404e-01
-2.574065710216595e-01 -1.013963181249604e-01 -4.059943423429257e-01
-2.563549187725426e-01 -7.381176730518890e-02 -3.941944009620008e-01
-2.553031250899748e-01 -4.622350672468922e-02 -3.823928726435391e-01
-2.542514728408579e-01 -1.863895590491768e-02 -3.705929312626140e-01
-2.532002448920936e-01 8.934465632669307e-03 -3.587977506942993e-01
-2.564934034194228e-01 -1.218771252163141e-01 -2.246034934058797e-01
-2.636636408232885e-01 -9.942841324514176e-02 -2.060308958524986e-01
-2.708355234067685e-01 -7.697455051518381e-02 -1.874540368978334e-01
-2.780079543834533e-01 -5.451897086563064e-02 -1.688757574760736e-01
-2.851798369669333e-01 -3.206510813567268e-02 -1.502988985214084e-01
-2.923500743707990e-01 -9.616396164500392e-03 -1.317263009680273e-01
-5.943197655992403e-02 -1.438691028260122e-01 -4.733010424329329e-01
-5.386402061993925e-02 -1.184019323324591e-01 -4.584406660814709e-01
-4.829431055204823e-02 -9.292673866578154e-02 -4.435756081195336e-01
-4.272401577485514e-02 -6.744887060806248e-02 -4.287089896207711e-01
-3.715430570696411e-02 -4.197367694138490e-02 -4.138439316588338e-01
-3.158634976697935e-02 -1.650650644783180e-02 -3.989835553073720e-01
-3.884134292182439e-01 -1.814277879790344e-01 -2.084706724739732e-01
-3.755971173192532e-01 -1.581801545736367e-01 -2.224568498095027e-01
-3.627776173238992e-01 -1.349267382490887e-01 -2.364465062489625e-01
-3.499570546297574e-01 -1.116713942848240e-01 -2.504373223897325e-01
-3.371375546344034e-01 -8.841797796027606e-02 -2.644269788291924e-01
-3.243212427354127e-01 -6.517034455487837e-02 -2.784131561647220e-01
-4.506407589859487e-01 -2.851465165395479e-01 -2.723186331526286e-01
-4.351405210991241e-01 -2.610723432984027e-01 -2.633435227712640e-01
-4.196358038758897e-01 -2.369912129820489e-01 -2.543658187175309e-01
-4.041295935405188e-01 -2.129077636406255e-01 -2.453872501063417e-01
-3.886248763172845e-01 -1.888266333242717e-01 -2.364095460526086e-01
-3.731246384304598e-01 -1.647524600831267e-01 -2.274344356712440e-01
-4.018573470995269e-01 -9.400138278395809e-02 -3.840468072250923e-01
-4.038989402175023e-01 -6.408232952369185e-02 -3.851990845814822e-01
-4.059415466667750e-01 -3.414842613840167e-02 -3.863519338631485e-01
-4.079844908931466e-01 -4.209572711436883e-03 -3.875049737865736e-01
-4.100270973424193e-01 2.572433067385330e-02 -3.886578230682400e-01
-4.120686904603948e-01 5.564338393411953e-02 -3.898101004246299e-01
-4.661768367434588e-01 -3.755261126546785e-01 4.602386165079818e-02
-4.531563891982342e-01 -3.488027476130451e-01 4.192389519270451e-02
-4.401311358413619e-01 -3.220695190503201e-01 3.782241544818261e-02
-4.271042805472735e-01 -2.953330026472312e-01 3.372043127485130e-02
-4.140790271904011e-01 -2.685997740845062e-01 2.961895153032940e-02
-4.010585796451765e-01 -2.418764090428729e-01 2.551898507223574e-02
-4.354441600892213e-01 -2.464615010534914e-01 -2.018886929456609e-02
-4.290742774987777e-01 -2.252905964212955e-01 -4.047305119431303e-02
-4.227032649980546e-01 -2.041159364258825e-01 -6.076083116754433e-02
-4.163318758605712e-01 -1.829400246427304e-01 -8.104981049860376e-02
-4.099608633598479e-01 -1.617653646473173e-01 -1.013375904718351e-01
-4.035909807694045e-01 -1.405944600151215e-01 -1.216217723715820e-01
-2.834908701085682e-01 -9.611997440595227e-02 -1.615326450195085e-01
-2.675212085885494e-01 -7.312664613557406e-02 -1.723305663064491e-01
-2.515476375269684e-01 -5.012768885593865e-02 -1.831311310383998e-01
-2.355727632848666e-01 -2.712685523988420e-02 -1.939325769186872e-01
-2.195991922232856e-01 -4.127897960248804e-03 -2.047331416506379e-01
-2.036295307032669e-01 1.886543031012941e-02 -2.155310629375786e-01
-4.623326597181179e-01 -1.099355327148161e-01 -3.460005111050745e-01
-4.665959821879427e-01 -8.037702752963975e-02 -3.430463644841863e-01
-4.708612979955594e-01 -5.080470211719447e-02 -3.400908366372372e-01
-4.751272782491066e-01 -2.122776996232621e-02 -3.371348483816010e-01
-4.793925940567232e-01 8.344555450119098e-03 -3.341793205346518e-01
-4.836559165265480e-01 3.790306063529546e-02 -3.312251739137635e-01
-4.705477970140527e-01 1.967061491508032e-01 -2.351770884436523e-01
-4.738577858015977e-01 2.263231122881725e-01 -2.316404144208597e-01
-4.771693742438503e-01 2.559543887412506e-01 -2.281020311906911e-01
-4.804814959043387e-01 2.855904362995652e-01 -2.245630782247305e-01
-4.837930843465913e-01 3.152217127526434e-01 -2.210246949945620e-01
-4.871030731341362e-01 3.448386758900127e-01 -2.174880209717694e-01
-1.192042617574862e-01 2.636800889226030e-01 -4.862542778513285e-01
-1.209181471277090e-01 2.920737403766849e-01 -4.766916010683857e-01
-1.226327989361897e-01 3.204800892848277e-01 -4.671246479193213e-01
-1.243477062240897e-01 3.488906706776572e-01 -4.575562693148830e-01
-1.260623580325704e-01 3.772970195858000e-01 -4.479893161658186e-01
-1.277762434027933e-01 4.056906710398819e-01 -4.384266393828759e-01
-2.114746378548225e-01 5.275291330391884e-02 -2.182823530737037e-02
-2.209077182580037e-01 7.739894511362456e-02 -3.611090783588349e-02
-2.303437337135658e-01 1.020526454039591e-01 -5.039802434136047e-02
-2.397807275199214e-01 1.267089018545033e-01 -6.468662217249208e-02
-2.492167429754835e-01 1.513626021448379e-01 -7.897373867796906e-02
-2.586498233786647e-01 1.760086339545436e-01 -9.325641120648216e-02
-4.018096718225557e-01 1.218783826680454e-01 -1.930676592918671e-01
-3.825535899137323e-01 1.423535564442583e-01 -2.035639310387336e-01
-3.632945289629839e-01 1.628318978638886e-01 -2.140618266275498e-01
-3.440344749982603e-01 1.833112951646580e-01 -2.245602634970159e-01
-3.247754140475118e-01 2.037896365842883e-01 -2.350581590858321e-01
-3.055193321386885e-01 2.242648103605012e-01 -2.455544308326985e-01
-2.929902176332013e-01 3.393436431669362e-01 -3.411065750733120e-01
-2.851773829143926e-01 3.395405437255800e-01 -3.121460504423756e-01
-2.773658036176342e-01 3.397374126448366e-01 -2.831901793952560e-01
-2.695546427948926e-01 3.399342710176308e-01 -2.542358595427419e-01
-2.617430634981341e-01 3.401311399368874e-01 -2.252799884956223e-01
-2.539302287793255e-01 3.403280404955312e-01 -1.963194638646860e-01
-4.663173027536346e-01 -2.163987416925473e-03 -1.571144085622925e-01
-4.655848583734364e-01 1.527818234289933e-02 -1.815138410173264e-01
-4.648523587461864e-01 3.272166773635228e-02 -2.059151138806517e-01
-4.641198407032524e-01 5.016559167434795e-02 -2.303170002134075e-01
-4.633873410760023e-01 6.760907706780091e-02 -2.547182730767328e-01
-4.626548966958042e-01 8.505124682762571e-02 -2.791177055317667e-01
-7.805910491042589e-02 -3.581902457169168e-02 -1.568971137424633e-01
-6.209131857186687e-02 -2.239451003217923e-02 -1.353381941387906e-01
-4.612384169972571e-02 -8.970255668769954e-03 -1.137796923614515e-01
-3.015646798305716e-02 4.453911969271598e-03 -9.222132985955692e-02
-1.418899111091599e-02 1.787816633268088e-02 -7.066282808221780e-02
1.778795227643008e-03 3.130268087219332e-02 -4.910390847854505e-02
-6.781603136065610e-02 3.998007256812629e-01 -3.046631139478360e-01
-7.718019198675795e-02 4.099971268787144e-01 -2.780503688524849e-01
-8.654357678106878e-02 4.201926832922585e-01 -2.514398286545631e-01
-9.590670296478256e-02 4.303879581111668e-01 -2.248300234224510e-01
-1.052700877590934e-01 4.405835145247108e-01 -1.982194832245292e-01
-1.146342483851952e-01 4.507799157221624e-01 -1.716067381291781e-01
-4.579654916262479e-01 -3.044425270627962e-01 1.136541717461881e-01
-4.486136726072241e-01 -2.856249796923490e-01 9.223898497107334e-02
-4.392606536101183e-01 -2.668050177494691e-01 7.082105030758545e-02
-4.299072346203186e-01 -2.479842509491115e-01 4.940219968130651e-02
-4.205542156232128e-01 -2.291642890062316e-01 2.798426501781862e-02
-4.112023966041891e-01 -2.103467416357845e-01 6.569078242703918e-03
-3.530334391324229e-02 -9.952796543308483e-02 -2.503270912643348e-01
-2.312997433040756e-02 -7.270736941260222e-02 -2.560696467741678e-01
-1.095181009627834e-02 -4.587620972652537e-02 -2.618144640695336e-01
1.227952354949031e-03 -1.904152881858375e-02 -2.675600352934103e-01
1.340611658907825e-02 7.789630867493121e-03 -2.733048525887761e-01
2.557948617191298e-02 3.461022688797571e-02 -2.790474080986091e-01
1.437416349390191e-01 -2.360402978710731e-01 -2.855002119048371e-01
[...]
  <CellData>
        <DataArray type="Float64" Name="cross_section_radius" format="ascii">
5.000000000000000e-03
5.000000000000000e-03
5.000000000000000e-03
5.000000000000000e-03
5.000000000000000e-03
5.000000000000000e-03
5.000000000000000e-03
5.000000000000000e-03
5.000000000000000e-03
5.000000000000000e-03
5.000000000000000e-03
5.000000000000000e-03
5.000000000000000e-03
5.000000000000000e-03
5.000000000000000e-03
5.000000000000000e-03
5.000000000000000e-03
5.000000000000000e-03
5.000000000000000e-03
5.000000000000000e-03
5.000000000000000e-03
5.000000000000000e-03
5.000000000000000e-03
5.000000000000000e-03
5.000000000000000e-03
5.000000000000000e-03
5.000000000000000e-03
5.000000000000000e-03
5.000000000000000e-03
5.000000000000000e-03
5.000000000000000e-03
5.000000000000000e-03
5.000000000000000e-03
5.000000000000000e-03
5.000000000000000e-03
5.000000000000000e-03
5.000000000000000e-03
5.000000000000000e-03
5.000000000000000e-03
5.000000000000000e-03
5.000000000000000e-03
5.000000000000000e-03
5.000000000000000e-03
5.000000000000000e-03
5.000000000000000e-03
5.000000000000000e-03
5.000000000000000e-03
5.000000000000000e-03
5.000000000000000e-03
5.000000000000000e-03
5.000000000000000e-03
5.000000000000000e-03
5.000000000000000e-03
5.000000000000000e-03
        </DataArray>
        <DataArray type="Float64" Name="element_ghosting" NumberOfComponents="3" format="ascii">
0.000000000000000e+00 0.000000000000000e+00 0.000000000000000e+00
0.000000000000000e+00 0.000000000000000e+00 0.000000000000000e+00
0.000000000000000e+00 0.000000000000000e+00 0.000000000000000e+00
0.000000000000000e+00 0.000000000000000e+00 0.000000000000000e+00
0.000000000000000e+00 0.000000000000000e+00 0.000000000000000e+00
0.000000000000000e+00 0.000000000000000e+00 0.000000000000000e+00
0.000000000000000e+00 0.000000000000000e+00 0.000000000000000e+00
0.000000000000000e+00 0.000000000000000e+00 0.000000000000000e+00
0.000000000000000e+00 0.000000000000000e+00 0.000000000000000e+00
0.000000000000000e+00 0.000000000000000e+00 0.000000000000000e+00
0.000000000000000e+00 0.000000000000000e+00 0.000000000000000e+00
0.000000000000000e+00 0.000000000000000e+00 0.000000000000000e+00
0.000000000000000e+00 0.000000000000000e+00 0.000000000000000e+00
0.000000000000000e+00 0.000000000000000e+00 0.000000000000000e+00
0.000000000000000e+00 0.000000000000000e+00 0.000000000000000e+00
0.000000000000000e+00 0.000000000000000e+00 0.000000000000000e+00
0.000000000000000e+00 0.000000000000000e+00 0.000000000000000e+00
0.000000000000000e+00 0.000000000000000e+00 0.000000000000000e+00
0.000000000000000e+00 0.000000000000000e+00 0.000000000000000e+00
0.000000000000000e+00 0.000000000000000e+00 0.000000000000000e+00
0.000000000000000e+00 0.000000000000000e+00 0.000000000000000e+00
0.000000000000000e+00 0.000000000000000e+00 0.000000000000000e+00
0.000000000000000e+00 0.000000000000000e+00 0.000000000000000e+00
0.000000000000000e+00 0.000000000000000e+00 0.000000000000000e+00
0.000000000000000e+00 0.000000000000000e+00 0.000000000000000e+00
0.000000000000000e+00 0.000000000000000e+00 0.000000000000000e+00
0.000000000000000e+00 0.000000000000000e+00 0.000000000000000e+00
0.000000000000000e+00 0.000000000000000e+00 0.000000000000000e+00
0.000000000000000e+00 0.000000000000000e+00 0.000000000000000e+00
0.000000000000000e+00 0.000000000000000e+00 0.000000000000000e+00
0.000000000000000e+00 0.000000000000000e+00 0.000000000000000e+00
0.000000000000000e+00 0.000000000000000e+00 0.000000000000000e+00
0.000000000000000e+00 0.000000000000000e+00 0.000000000000000e+00
0.000000000000000e+00 0.000000000000000e+00 0.000000000000000e+00
0.000000000000000e+00 0.000000000000000e+00 0.000000000000000e+00
0.000000000000000e+00 0.000000000000000e+00 0.000000000000000e+00
0.000000000000000e+00 0.000000000000000e+00 0.000000000000000e+00
0.000000000000000e+00 0.000000000000000e+00 0.000000000000000e+00
0.000000000000000e+00 0.000000000000000e+00 0.000000000000000e+00
0.000000000000000e+00 0.000000000000000e+00 0.000000000000000e+00
0.000000000000000e+00 0.000000000000000e+00 0.000000000000000e+00
0.000000000000000e+00 0.000000000000000e+00 0.000000000000000e+00
0.000000000000000e+00 0.000000000000000e+00 0.000000000000000e+00
0.000000000000000e+00 0.000000000000000e+00 0.000000000000000e+00
0.000000000000000e+00 0.000000000000000e+00 0.000000000000000e+00
0.000000000000000e+00 0.000000000000000e+00 0.000000000000000e+00
0.000000000000000e+00 0.000000000000000e+00 0.000000000000000e+00
0.000000000000000e+00 0.000000000000000e+00 0.000000000000000e+00
0.000000000000000e+00 0.000000000000000e+00 0.000000000000000e+00
0.000000000000000e+00 0.000000000000000e+00 0.000000000000000e+00
0.000000000000000e+00 0.000000000000000e+00 0.000000000000000e+00
0.000000000000000e+00 0.000000000000000e+00 0.000000000000000e+00
0.000000000000000e+00 0.000000000000000e+00 0.000000000000000e+00
0.000000000000000e+00 0.000000000000000e+00 0.000000000000000e+00
        </DataArray>
        <DataArray type="Float64" Name="element_owner" format="ascii">
1.000000000000000e+00
1.000000000000000e+00
1.000000000000000e+00
1.000000000000000e+00
1.000000000000000e+00
1.000000000000000e+00
1.000000000000000e+00
1.000000000000000e+00
1.000000000000000e+00
1.000000000000000e+00
1.000000000000000e+00
1.000000000000000e+00
1.000000000000000e+00
1.000000000000000e+00
1.000000000000000e+00
1.000000000000000e+00
1.000000000000000e+00
1.000000000000000e+00
1.000000000000000e+00
1.000000000000000e+00
1.000000000000000e+00
1.000000000000000e+00
1.000000000000000e+00
1.000000000000000e+00
1.000000000000000e+00
1.000000000000000e+00
1.000000000000000e+00
1.000000000000000e+00
1.000000000000000e+00
1.000000000000000e+00
1.000000000000000e+00
1.000000000000000e+00
1.000000000000000e+00
1.000000000000000e+00
1.000000000000000e+00
1.000000000000000e+00
1.000000000000000e+00
1.000000000000000e+00
1.000000000000000e+00
1.000000000000000e+00
1.000000000000000e+00
1.000000000000000e+00
1.000000000000000e+00
1.000000000000000e+00
1.000000000000000e+00
1.000000000000000e+00
1.000000000000000e+00
1.000000000000000e+00
1.000000000000000e+00
1.000000000000000e+00
1.000000000000000e+00
1.000000000000000e+00
1.000000000000000e+00
1.000000000000000e+00
        </DataArray>
      </CellData>

    </Piece>
  </UnstructuredGrid>
</VTKFile>
