<?xml version="1.0" ?> 
<!-- 
# vtk DataFile Version 3.0
-->
<VTKFile type="UnstructuredGrid" version="0.1" compressor="vtkZLibDataCompressor" byte_order="LittleEndian">
  <UnstructuredGrid>
    <FieldData>
      <DataArray type="Float64" Name="TIME" NumberOfTuples="1" format="ascii">
1.000000000000000e-03 
      </DataArray>
    </FieldData>

    <Piece NumberOfPoints="300" NumberOfCells="50" >
      <Points>
        <DataArray type="Float64" NumberOfComponents="3" format="ascii">
-3.473482069055469e-01 7.053494255352029e-02 4.267202557166629e-01
-3.455933606673319e-01 9.901401129661749e-02 4.174228556822952e-01
-3.438377339133740e-01 1.275057468825475e-01 4.081213203755964e-01
-3.420818469875018e-01 1.560017047494217e-01 3.988184066447873e-01
-3.403262202335440e-01 1.844934403353517e-01 3.895168713380885e-01
-3.385713739953289e-01 2.129725090784489e-01 3.802194713037209e-01
-1.296168359930961e-01 -2.328072094381428e-01 4.816628901091851e-01
-1.214853569138424e-01 -2.072785721541159e-01 4.681507831151469e-01
-1.133513184861975e-01 -1.817418998402836e-01 4.546344232430084e-01
-1.052164269424222e-01 -1.562025491831827e-01 4.411166457448366e-01
-9.708238851477727e-02 -1.306658768693504e-01 4.276002858726982e-01
-8.895090943552367e-02 -1.051372395853235e-01 4.140881788786599e-01
-1.192474411369256e-01 -2.224565804970021e-01 3.569595234752584e-01
-1.208707473953918e-01 -1.980419498306889e-01 3.743278482213926e-01
-1.224945130563265e-01 -1.736204097216642e-01 3.917010882761577e-01
-1.241184318514174e-01 -1.491965664650689e-01 4.090759667671329e-01
-1.257421975123522e-01 -1.247750263560441e-01 4.264492068218979e-01
-1.273655037708184e-01 -1.003603956897309e-01 4.438175315680321e-01
2.211659542574408e-01 1.764072814413226e-01 1.264866246342714e-01
2.375397939458478e-01 2.013219843967811e-01 1.298882219069270e-01
2.539188703586948e-01 2.262446556380152e-01 1.332909070873619e-01
2.702996923463551e-01 2.511699829745079e-01 1.366939549037231e-01
2.866787687592021e-01 2.760926542157420e-01 1.400966400841580e-01
3.030526084476091e-01 3.010073571712005e-01 1.434982373568136e-01
3.105902291623316e-01 3.397771306754306e-01 4.786434644907063e-02
3.087273030903632e-01 3.416123632975646e-01 7.774674946879218e-02
3.068646685690846e-01 3.434473087030747e-01 1.076244758481769e-01
3.050021312313692e-01 3.452821583697100e-01 1.375006433474494e-01
3.031394967100907e-01 3.471171037752201e-01 1.673783697268342e-01
3.012765706381222e-01 3.489523363973541e-01 1.972607727465558e-01
-3.943521347004200e-01 3.442273761447377e-01 2.359961631627106e-01
-3.849781769393770e-01 3.705109664907968e-01 2.249613882914091e-01
-3.756008713605352e-01 3.968039437653891e-01 2.139226724576388e-01
-3.662224498424272e-01 4.231000500161594e-01 2.028826429697123e-01
-3.568451442635854e-01 4.493930272907517e-01 1.918439271359421e-01
-3.474711865025424e-01 4.756766176368109e-01 1.808091522646406e-01
2.113978015467837e-01 1.490387476763788e-01 9.855260742854340e-02
1.988031363467180e-01 1.711356169283582e-01 1.144701941762895e-01
1.862058870040873e-01 1.932370199618620e-01 1.303910468555068e-01
1.736077762806016e-01 2.153399342558737e-01 1.463129881785480e-01
1.610105269379709e-01 2.374413372893774e-01 1.622338408577654e-01
1.484158617379052e-01 2.595382065413570e-01 1.781514276055115e-01
2.772239552543820e-01 5.171917909838403e-02 3.319425433218525e-01
2.765801576338022e-01 8.171881611729453e-02 3.324843322749577e-01
2.759360203655414e-01 1.117342800153604e-01 3.330264070591308e-01
2.752917698813870e-01 1.417550195398113e-01 3.335685771203267e-01
2.746476326131262e-01 1.717704834378771e-01 3.341106519044998e-01
2.740038349925464e-01 2.017701204567876e-01 3.346524408576050e-01
8.527046310791832e-02 9.176529196596662e-02 1.986587165595496e-01
9.397551245882395e-02 1.200515815169449e-01 1.936894201358504e-01
1.026844836469999e-01 1.483506147319884e-01 1.887178849227847e-01
1.113947621142659e-01 1.766538958350538e-01 1.837456034465968e-01
1.201037333024419e-01 2.049529290500974e-01 1.787740682335311e-01
1.288087826533475e-01 2.332392186010756e-01 1.738047718098319e-01
-4.118138859522845e-01 -7.220584510048256e-02 4.269279985750804e-01
-4.080148491201964e-01 -6.185126279849249e-02 3.990308428394052e-01
-4.042161005896052e-01 -5.149746628556125e-02 3.711358041644776e-01
-4.004174481595130e-01 -4.114393170231628e-02 3.432414711764658e-01
-3.966186996289218e-01 -3.079013518938503e-02 3.153464325015382e-01
-3.928196627968338e-01 -2.043555288739498e-02 2.874492767658630e-01
-1.666255519190626e-01 3.705693534571695e-02 2.453423364007895e-01
-1.610343690316800e-01 6.418311418869618e-02 2.568937520808456e-01
-1.554409243888270e-01 9.132026616287645e-02 2.684498405605816e-01
-1.498467258274838e-01 1.184610758474570e-01 2.800074866402110e-01
-1.442532811846307e-01 1.455982278216373e-01 2.915635751199470e-01
-1.386620982972482e-01 1.727244066646166e-01 3.031149908000031e-01
-3.579123419185659e-01 -3.580133230377309e-01 1.780867733379770e-01
-3.521941063935596e-01 -3.301813121980213e-01 1.877418144810402e-01
-3.464735016605590e-01 -3.023377698601256e-01 1.974008559491273e-01
-3.407521071915601e-01 -2.744903836895014e-01 2.070612308588891e-01
-3.350315024585594e-01 -2.466468413516058e-01 2.167202723269762e-01
-3.293132669335532e-01 -2.188148305118962e-01 2.263753134700394e-01
-3.780832454733812e-01 2.905470838533316e-01 3.828476481071156e-01
-3.780575793019413e-01 3.150652279997458e-01 4.001464054079778e-01
-3.780319054912519e-01 3.395906696982899e-01 4.174503114910003e-01
-3.780062291341459e-01 3.641185439142107e-01 4.347559338347429e-01
-3.779805553234564e-01 3.886439856127548e-01 4.520598399177654e-01
-3.779548891520166e-01 4.131621297591691e-01 4.693585972186276e-01
-2.558562165034206e-01 -1.334565501831436e-01 1.921177996154333e-01
-2.434812171873841e-01 -1.209889688540278e-01 1.677994059037441e-01
-2.311065466275544e-01 -1.085217187406672e-01 1.434816582383833e-01
-2.187319856531270e-01 -9.605457903255830e-02 1.191641259217984e-01
-2.063573150932973e-01 -8.358732891919771e-02 9.484637825643749e-02
-1.939823157772609e-01 -7.111974759008190e-02 7.052798454474840e-02
2.972492823514754e-01 3.143044170709464e-01 4.480054347486425e-01
3.220723932021125e-01 3.290848026020949e-01 4.399205482787000e-01
3.468957335303645e-01 3.438653247707359e-01 4.318355870679051e-01
3.717191503511548e-01 3.586458924852077e-01 4.237506009434927e-01
3.965424906794068e-01 3.734264146538487e-01 4.156656397326978e-01
4.213656015300440e-01 3.882068001849974e-01 4.075807532627553e-01
-4.608457066986311e-02 2.859789169720198e-01 1.118904440554559e-01
-5.296716422645607e-02 3.062965483806206e-01 1.328673677909544e-01
-5.985085652894863e-02 3.266174233214767e-01 1.538476403089651e-01
-6.673491508007441e-02 3.469393794397512e-01 1.748290290878132e-01
-7.361860738256698e-02 3.672602543806072e-01 1.958093016058239e-01
-8.050120093915994e-02 3.875778857892082e-01 2.167862253413224e-01
1.207350254239549e-03 -1.384658581483240e-01 3.740849735205070e-01
1.621820227386726e-02 -1.143671326003437e-01 3.643746332058640e-01
3.123326714057349e-02 -9.026164366242462e-02 3.546615676509234e-01
4.624973628963923e-02 -6.615390026119264e-02 3.449475936825501e-01
6.126480115634546e-02 -4.204841132327356e-02 3.352345281276095e-01
7.627565317597317e-02 -1.794968577529320e-02 3.255241878129665e-01
-3.752277011536339e-01 2.680225008665600e-01 2.909463909308636e-01
-3.708362377323454e-01 2.862676232259549e-01 2.675381573946267e-01
-3.664443864192142e-01 3.045143571515762e-01 2.441278562417503e-01
-3.620524058088022e-01 3.227616282659395e-01 2.207168658833272e-01
-3.576605544956710e-01 3.410083621915608e-01 1.973065647304508e-01
-3.532690910743826e-01 3.592534845509557e-01 1.738983311942140e-01
-3.952179244723278e-01 -1.406543539448656e-01 3.723413963131278e-01
-3.959556305964999e-01 -1.402272737590955e-01 3.423567642001263e-01
-3.966932259166464e-01 -1.398002577210970e-01 3.123766358018664e-01
-3.974307843021176e-01 -1.393732630656889e-01 2.823980086418536e-01
-3.981683796222642e-01 -1.389462470276903e-01 2.524178802435937e-01
-3.989060857464363e-01 -1.385191668419203e-01 2.224332481305922e-01
-2.675898474856843e-01 -2.637734948088848e-01 3.017589040832041e-01
-2.602873819544408e-01 -2.429825637544844e-01 2.813955930959206e-01
-2.529834941394994e-01 -2.221875833003062e-01 2.610283159953941e-01
-2.456791322299922e-01 -2.013912530462020e-01 2.406597168571200e-01
-2.383752444150510e-01 -1.805962725920237e-01 2.202924397565935e-01
-2.310727788838074e-01 -1.598053415376234e-01 1.999291287693100e-01
-1.072507074253896e-01 1.012390841954937e-01 7.128539944657093e-02
-1.158365559393226e-01 1.096611768319732e-01 9.876667063339355e-02
-1.244215372215190e-01 1.180824187772239e-01 1.262451660164624e-01
-1.330062294264698e-01 1.265033771587317e-01 1.537227361316134e-01
-1.415912107086662e-01 1.349246191039824e-01 1.812012315146823e-01
-1.501770592225991e-01 1.433467117404619e-01 2.086825027015050e-01
-3.615403713362304e-01 2.607948010569615e-01 3.070083626599454e-01
-3.452449263819957e-01 2.706154878670932e-01 3.302010662239056e-01
-3.289508740113051e-01 2.804353354165062e-01 3.533917877752594e-01
-3.126572858351293e-01 2.902549032123464e-01 3.765818486557444e-01
-2.963632334644387e-01 3.000747507617594e-01 3.997725702070982e-01
-2.800677885102041e-01 3.098954375718912e-01 4.229652737710584e-01
-7.730107506401422e-02 3.424846958835337e-01 6.297958213377347e-02
-6.015804192182971e-02 3.669314721771481e-01 6.595566428663695e-02
-4.300992656088420e-02 3.913854959551542e-01 6.893262872797447e-02
-2.586011712701838e-02 4.158419355612908e-01 7.190988726547003e-02
-8.712001766072879e-03 4.402959593392970e-01 7.488685170680755e-02
8.431031376111625e-03 4.647427356329114e-01 7.786293385967104e-02
-3.050728468739202e-02 -2.576748486559832e-02 3.645979404693955e-01
-2.186199265338944e-02 -2.410063123071198e-02 3.359225263265623e-01
-1.321803852537356e-02 -2.243403555049604e-02 3.072515498601086e-01
-4.574530366019913e-03 -2.076752585517022e-02 2.785820526191148e-01
4.069423761995971e-03 -1.910093017495428e-02 2.499110761526611e-01
1.271471579599855e-02 -1.743407654006794e-02 2.212356620098279e-01
-3.842846543934124e-01 5.600990060152801e-02 2.233253620463601e-01
-3.740216879578452e-01 5.932791600715945e-02 2.513158731774802e-01
-3.637602500060534e-01 6.264543725423100e-02 2.793022156267285e-01
-3.534993215488536e-01 6.596279378178255e-02 3.072871685153528e-01
-3.432378835970619e-01 6.928031502885408e-02 3.352735109646011e-01
-3.329749171614946e-01 7.259833043448553e-02 3.632640220957212e-01
-4.633639851212135e-01 -8.199764221499879e-02 2.144722179878138e-01
-4.619047271302142e-01 -5.427327351691309e-02 2.258636051153909e-01
-4.604448702631158e-01 -2.653752680213428e-02 2.372596672418583e-01
-4.589848137706508e-01 1.202012584875588e-03 2.486572877012891e-01
-4.575249569035522e-01 2.893775929965442e-02 2.600533498277565e-01
-4.560656989125530e-01 5.666212799774010e-02 2.714447369553337e-01
2.259359053966377e-02 -3.224404610812483e-01 4.689370416696592e-01
6.743272470272253e-03 -2.969617421675798e-01 4.688743836810541e-01
-9.111940811826657e-03 -2.714751544055988e-01 4.688117063411540e-01
-2.496878583149470e-02 -2.459859436941802e-01 4.687490225508222e-01
-4.082399911359362e-02 -2.204993559321991e-01 4.686863452109221e-01
-5.667431718298512e-02 -1.950206370185307e-01 4.686236872223172e-01
-4.193562388059469e-01 -1.172864578224088e-01 3.503600849876115e-01
-4.164227892079276e-01 -1.057511610028110e-01 3.228235707562617e-01
-4.134895025045147e-01 -9.421650473883637e-02 2.952885856289575e-01
-4.105562700993040e-01 -8.268206199340281e-02 2.677541102030018e-01
-4.076229833958911e-01 -7.114740572942817e-02 2.402191250756975e-01
-4.046895337978718e-01 -5.961210890983040e-02 2.126826108443478e-01
6.577622861477729e-02 6.841979800379250e-02 2.186881376483125e-01
5.531231830159555e-02 8.409916803505701e-02 1.953494411974810e-01
4.484815995467353e-02 9.977890972592848e-02 1.720101915324110e-01
3.438391892983809e-02 1.154587753033356e-01 1.486707574625950e-01
2.391976058291607e-02 1.311385169942071e-01 1.253315077975251e-01
1.345585026973434e-02 1.468178870254716e-01 1.019928113466935e-01
-3.726714153627798e-01 1.686207018120336e-02 4.591039587153989e-01
-3.773133647000046e-01 1.998532816398862e-02 4.296334951727117e-01
-3.819546378324060e-01 2.310813117366669e-02 4.001673246690377e-01
-3.865956855631995e-01 2.623078252564236e-02 3.707025851783682e-01
-3.912369586956008e-01 2.935358553532042e-02 3.412364146746941e-01
-3.958789080328258e-01 3.247684351810568e-02 3.117659511320070e-01
-4.090034862690034e-01 4.848835395818861e-01 4.438949136744621e-01
-4.000272587598065e-01 4.859241965469326e-01 4.152916138424833e-01
-3.910523821272405e-01 4.869646968983936e-01 3.866926186617926e-01
-3.820779557868850e-01 4.880051450453261e-01 3.580950583648644e-01
-3.731030791543190e-01 4.890456453967872e-01 3.294960631841736e-01
-3.641268516451222e-01 4.900863023618337e-01 3.008927633521949e-01
7.832172301938381e-02 1.220430828165407e-01 2.825258657180171e-01
7.912236081499159e-02 1.491321835176577e-01 2.954126063189264e-01
7.992332394567712e-02 1.762322917364444e-01 3.083045833810398e-01
8.072439552138855e-02 2.033360691277878e-01 3.211983059302210e-01
8.152535865207408e-02 2.304361773465746e-01 3.340902829923344e-01
8.232599644768188e-02 2.575252780476917e-01 3.469770235932438e-01
1.551993538734528e-01 3.526888982665231e-01 2.448001086537625e-01
1.709979922193117e-01 3.485619650909150e-01 2.196370227811796e-01
1.867943143799821e-01 3.444356369510881e-01 1.944776259839154e-01
2.025898644789231e-01 3.403095104898551e-01 1.693194588784242e-01
2.183861866395936e-01 3.361831823500283e-01 1.441600620811601e-01
2.341848249854524e-01 3.320562491744202e-01 1.189969762085771e-01
3.152878719009754e-01 3.678890168928756e-01 4.160094886018837e-01
3.146760138995887e-01 3.732251006195634e-01 3.864972481617250e-01
3.140642403964111e-01 3.785604474276900e-01 3.569890833918283e-01
3.134524950593031e-01 3.838955485962964e-01 3.274822771786856e-01
3.128407215561255e-01 3.892308954044231e-01 2.979741124087888e-01
3.122288635547388e-01 3.945669791311109e-01 2.684618719686301e-01
-3.256849528072966e-02 1.895062609706248e-01 2.602176639897069e-01
-3.672261790775273e-02 2.049295370507644e-01 2.348230067360209e-01
-4.087681338033101e-02 2.203530835892439e-01 2.094279041685891e-01
-4.503103313476104e-02 2.357767202805034e-01 1.840326531632421e-01
-4.918522860733933e-02 2.512002668189831e-01 1.586375505958103e-01
-5.333935123436239e-02 2.666235428991227e-01 1.332428933421243e-01
2.205670083442245e-01 3.356894508810151e-01 1.136540533774781e-01
2.200889378316104e-01 3.656965830618076e-01 1.137960853241293e-01
2.196106186028712e-01 3.957193264494090e-01 1.139381911628833e-01
2.191322164687569e-01 4.257472735726134e-01 1.140803216323381e-01
2.186538972400177e-01 4.557700169602149e-01 1.142224274710920e-01
2.181758267274035e-01 4.857771491410074e-01 1.143644594177433e-01
-1.918714855591124e-01 3.151534875408786e-01 3.636125924122696e-01
-1.874433001151644e-01 3.423077113889971e-01 3.755940309418784e-01
-1.830133592466976e-01 3.694726997344329e-01 3.875802191621294e-01
-1.785828332367246e-01 3.966412762456411e-01 3.995679906125945e-01
-1.741528923682579e-01 4.238062645910770e-01 4.115541788328456e-01
-1.697247069243100e-01 4.509604884391955e-01 4.235356173624544e-01
2.357610683879178e-01 2.332090640971626e-01 3.470262154123058e-01
2.335176101507917e-01 2.333052499158050e-01 3.171136907963868e-01
2.312744945542324e-01 2.334014210441077e-01 2.872057346828893e-01
2.290314931711954e-01 2.334975872756306e-01 2.572993014035322e-01
2.267883775746361e-01 2.335937584039334e-01 2.273913452900347e-01
2.245449193375100e-01 2.336899442225758e-01 1.974788206741158e-01
1.486688991423415e-01 3.183900970295018e-01 3.268461592628700e-01
1.432220103972615e-01 3.333076105754803e-01 3.522984134304590e-01
1.377750460269845e-01 3.482253312378431e-01 3.777510209799196e-01
1.323280564483083e-01 3.631431209390007e-01 4.032037463233375e-01
1.268810920780313e-01 3.780608416013635e-01 4.286563538727981e-01
1.214342033329513e-01 3.929783551473420e-01 4.541086080403872e-01
1.479704126883413e-01 6.234360966011948e-02 4.849796656080967e-01
1.568610118101026e-01 6.941606183092931e-02 4.572166850818195e-01
1.657505536361482e-01 7.648767292530799e-02 4.294570062093414e-01
1.746397430302885e-01 8.355900366087629e-02 4.016984278881297e-01
1.835292848563341e-01 9.063061475525497e-02 3.739387490156517e-01
1.924198839780954e-01 9.770306692606481e-02 3.461757684893745e-01
2.926462218794208e-01 3.318772614221833e-01 2.354352242926430e-01
2.956759278420720e-01 3.613276817303080e-01 2.305235511420622e-01
2.987071033896473e-01 3.907923872179939e-01 2.256094955421931e-01
3.017387687988641e-01 4.202618544322000e-01 2.206946457925613e-01
3.047699443464394e-01 4.497265599198859e-01 2.157805901926922e-01
3.077996503090906e-01 4.791769802280106e-01 2.108689170421114e-01
6.639441205944488e-03 7.167730614167819e-02 1.752661772418048e-01
2.140391742010161e-02 9.779052853704147e-02 1.745071741300591e-01
3.617368665823166e-02 1.239131124505612e-01 1.737478989177927e-01
5.094522023768602e-02 1.500388168701331e-01 1.729885330053528e-01
6.571498947581608e-02 1.761614007836528e-01 1.722292577930864e-01
8.047946568997319e-02 2.022746231790161e-01 1.714702546813408e-01
4.396286834355544e-01 3.931101986229156e-01 4.560182775866539e-01
4.471662219149596e-01 3.987655341483550e-01 4.275396804187702e-01
4.547027618339187e-01 4.044201204644366e-01 3.990648560476385e-01
4.622389688993958e-01 4.100744570440654e-01 3.705912892754242e-01
4.697755088183549e-01 4.157290433601469e-01 3.421164649042925e-01
4.773130472977601e-01 4.213843788855865e-01 3.136378677364089e-01
-4.151668167668507e-01 -1.154643475497776e-01 3.796197808853050e-01
-4.150571564613661e-01 -8.650093836211242e-02 3.717648946659372e-01
-4.149474463832272e-01 -5.752438325306598e-02 3.639064432683118e-01
-4.148377197142036e-01 -2.854344617022577e-02 3.560468034779340e-01
-4.147280096360647e-01 4.331089388206859e-04 3.481883520803087e-01
-4.146183493305801e-01 2.939651812648584e-02 3.403334658609409e-01
-1.825347851949554e-01 -3.623095621165678e-03 4.734735528727868e-01
-1.849797782344620e-01 8.776205305404062e-03 4.462665644121843e-01
-1.874246600693066e-01 2.117494227942063e-02 4.190608133963938e-01
-1.898695048359307e-01 3.357349126925280e-02 3.918554748622076e-01
-1.923143866707754e-01 4.597222824326937e-02 3.646497238464172e-01
-1.947593797102820e-01 5.837152916983911e-02 3.374427353858147e-01
-4.321252816591105e-01 3.790787742193692e-01 3.472622479302059e-01
-4.203383041639933e-01 3.895531385974241e-01 3.727819717400204e-01
-4.085522202774785e-01 4.000267088802908e-01 3.982997608176498e-01
-3.967664342604978e-01 4.105000144647614e-01 4.238169049845509e-01
-3.849803503739830e-01 4.209735847476282e-01 4.493346940621802e-01
-3.731933728788659e-01 4.314479491256831e-01 4.748544178719948e-01
-9.169605260454688e-02 8.530907172271199e-02 2.195369346458841e-01
-8.744252438448052e-02 1.014260592542826e-01 2.444810290796718e-01
-8.318880758993709e-02 1.175437613109107e-01 2.694262293764799e-01
-7.893502793723461e-02 1.336617015425579e-01 2.943717982942945e-01
-7.468131114269118e-02 1.497794035991859e-01 3.193169985911025e-01
-7.042778292262483e-02 1.658963911307565e-01 3.442610930248902e-01
3.477950768111304e-01 2.062008178326594e-02 1.839426423933165e-01
3.626760037701191e-01 4.448764356345149e-02 1.943953668064169e-01
3.775610725606173e-01 6.836184843917184e-02 2.048510005425354e-01
3.924475219616187e-01 9.223826768007046e-02 2.153076040529933e-01
4.073325907521169e-01 1.161124725557908e-01 2.257632377891118e-01
4.222135177111057e-01 1.399800343359764e-01 2.362159622022121e-01
-3.982032838639614e-01 -2.766531847876629e-01 2.985629450343841e-01
-3.775538500645079e-01 -2.619902471976882e-01 2.824804217182134e-01
-3.569036473236251e-01 -2.473267635907961e-01 2.663972995227423e-01
-3.362531882689325e-01 -2.326630979782648e-01 2.503139777008379e-01
-3.156029855280497e-01 -2.179996143713728e-01 2.342308555053668e-01
-2.949535517285962e-01 -2.033366767813980e-01 2.181483321891961e-01
-3.906403079076730e-01 3.619390805864055e-01 3.595051251213010e-01
-3.836315883357245e-01 3.832055918885688e-01 3.395340478399904e-01
-3.766216258672017e-01 4.044758745035621e-01 3.195594289726194e-01
-3.696112490998209e-01 4.257474142228322e-01 2.995836295765615e-01
-3.626012866312982e-01 4.470176968378256e-01 2.796090107091905e-01
-3.555925670593497e-01 4.682842081399889e-01 2.596379334278799e-01
        </DataArray>
      </Points>

      <Cells>
        <DataArray type="Int32" Name="connectivity" format="ascii">
0 1 2 3 4 5 6 7 8 9 10 11 12 13 14 15 16 17 18 19 20 21 22 23 24 25 26 27 28 29 30 31 32 33 34 35 36 37 38 39 40 41 42 43 44 45 46 47 48 49 50 51 52 53 54 55 56 57 58 59 60 61 62 63 64 65 66 67 68 69 70 71 72 73 74 75 76 77 78 79 80 81 82 83 84 85 86 87 88 89 90 91 92 93 94 95 96 97 98 99 100 101 102 103 104 105 106 107 108 109 110 111 112 113 114 115 116 117 118 119 120 121 122 123 124 125 126 127 128 129 130 131 132 133 134 135 136 137 138 139 140 141 142 143 144 145 146 147 148 149 150 151 152 153 154 155 156 157 158 159 160 161 162 163 164 165 166 167 168 169 170 171 172 173 174 175 176 177 178 179 180 181 182 183 184 185 186 187 188 189 190 191 192 193 194 195 196 197 198 199 200 201 202 203 204 205 206 207 208 209 210 211 212 213 214 215 216 217 218 219 220 221 222 223 224 225 226 227 228 229 230 231 232 233 234 235 236 237 238 239 240 241 242 243 244 245 246 247 248 249 250 251 252 253 254 255 256 257 258 259 260 261 262 263 264 265 266 267 268 269 270 271 272 273 274 275 276 277 278 279 280 281 282 283 284 285 286 287 288 289 290 291 292 293 294 295 296 297 298 299 
        </DataArray>
        <DataArray type="Int32" Name="offsets" format="ascii">
6 12 18 24 30 36 42 48 54 60 66 72 78 84 90 96 102 108 114 120 126 132 138 144 150 156 162 168 174 180 186 192 198 204 210 216 222 228 234 240 246 252 258 264 270 276 282 288 294 300 
        </DataArray>
        <DataArray type="UInt8" Name="types" format="ascii">
4 4 4 4 4 4 4 4 4 4 4 4 4 4 4 4 4 4 4 4 4 4 4 4 4 4 4 4 4 4 4 4 4 4 4 4 4 4 4 4 4 4 4 4 4 4 4 4 4 4 
        </DataArray>
      </Cells>

  <CellData>
        <DataArray type="Float64" Name="cross_section_radius" format="ascii">
5.000000000000000e-03
5.000000000000000e-03
5.000000000000000e-03
5.000000000000000e-03
5.000000000000000e-03
5.000000000000000e-03
5.000000000000000e-03
5.000000000000000e-03
5.000000000000000e-03
5.000000000000000e-03
5.000000000000000e-03
5.000000000000000e-03
5.000000000000000e-03
5.000000000000000e-03
5.000000000000000e-03
5.000000000000000e-03
5.000000000000000e-03
5.000000000000000e-03
5.000000000000000e-03
5.000000000000000e-03
5.000000000000000e-03
5.000000000000000e-03
5.000000000000000e-03
5.000000000000000e-03
5.000000000000000e-03
5.000000000000000e-03
5.000000000000000e-03
5.000000000000000e-03
5.000000000000000e-03
5.000000000000000e-03
5.000000000000000e-03
5.000000000000000e-03
5.000000000000000e-03
5.000000000000000e-03
5.000000000000000e-03
5.000000000000000e-03
5.000000000000000e-03
5.000000000000000e-03
5.000000000000000e-03
5.000000000000000e-03
5.000000000000000e-03
5.000000000000000e-03
5.000000000000000e-03
5.000000000000000e-03
5.000000000000000e-03
5.000000000000000e-03
5.000000000000000e-03
5.000000000000000e-03
5.000000000000000e-03
5.000000000000000e-03
        </DataArray>
        <DataArray type="Float64" Name="element_ghosting" NumberOfComponents="3" format="ascii">
0.000000000000000e+00 0.000000000000000e+00 0.000000000000000e+00
0.000000000000000e+00 0.000000000000000e+00 0.000000000000000e+00
0.000000000000000e+00 0.000000000000000e+00 0.000000000000000e+00
0.000000000000000e+00 0.000000000000000e+00 0.000000000000000e+00
0.000000000000000e+00 0.000000000000000e+00 0.000000000000000e+00
0.000000000000000e+00 0.000000000000000e+00 0.000000000000000e+00
0.000000000000000e+00 0.000000000000000e+00 0.000000000000000e+00
0.000000000000000e+00 0.000000000000000e+00 0.000000000000000e+00
0.000000000000000e+00 0.000000000000000e+00 0.000000000000000e+00
0.000000000000000e+00 0.000000000000000e+00 0.000000000000000e+00
0.000000000000000e+00 0.000000000000000e+00 0.000000000000000e+00
0.000000000000000e+00 0.000000000000000e+00 0.000000000000000e+00
0.000000000000000e+00 0.000000000000000e+00 0.000000000000000e+00
0.000000000000000e+00 0.000000000000000e+00 0.000000000000000e+00
0.000000000000000e+00 0.000000000000000e+00 0.000000000000000e+00
0.000000000000000e+00 0.000000000000000e+00 0.000000000000000e+00
0.000000000000000e+00 0.000000000000000e+00 0.000000000000000e+00
0.000000000000000e+00 0.000000000000000e+00 0.000000000000000e+00
0.000000000000000e+00 0.000000000000000e+00 0.000000000000000e+00
0.000000000000000e+00 0.000000000000000e+00 0.000000000000000e+00
0.000000000000000e+00 0.000000000000000e+00 0.000000000000000e+00
0.000000000000000e+00 0.000000000000000e+00 0.000000000000000e+00
0.000000000000000e+00 0.000000000000000e+00 0.000000000000000e+00
0.000000000000000e+00 0.000000000000000e+00 0.000000000000000e+00
0.000000000000000e+00 0.000000000000000e+00 0.000000000000000e+00
0.000000000000000e+00 0.000000000000000e+00 0.000000000000000e+00
0.000000000000000e+00 0.000000000000000e+00 0.000000000000000e+00
0.000000000000000e+00 0.000000000000000e+00 0.000000000000000e+00
0.000000000000000e+00 0.000000000000000e+00 0.000000000000000e+00
0.000000000000000e+00 0.000000000000000e+00 0.000000000000000e+00
0.000000000000000e+00 0.000000000000000e+00 0.000000000000000e+00
0.000000000000000e+00 0.000000000000000e+00 0.000000000000000e+00
0.000000000000000e+00 0.000000000000000e+00 0.000000000000000e+00
0.000000000000000e+00 0.000000000000000e+00 0.000000000000000e+00
0.000000000000000e+00 0.000000000000000e+00 0.000000000000000e+00
0.000000000000000e+00 0.000000000000000e+00 0.000000000000000e+00
0.000000000000000e+00 0.000000000000000e+00 0.000000000000000e+00
0.000000000000000e+00 0.000000000000000e+00 0.000000000000000e+00
0.000000000000000e+00 0.000000000000000e+00 0.000000000000000e+00
0.000000000000000e+00 0.000000000000000e+00 0.000000000000000e+00
0.000000000000000e+00 0.000000000000000e+00 0.000000000000000e+00
0.000000000000000e+00 0.000000000000000e+00 0.000000000000000e+00
0.000000000000000e+00 0.000000000000000e+00 0.000000000000000e+00
0.000000000000000e+00 0.000000000000000e+00 0.000000000000000e+00
0.000000000000000e+00 0.000000000000000e+00 0.000000000000000e+00
0.000000000000000e+00 0.000000000000000e+00 0.000000000000000e+00
0.000000000000000e+00 0.000000000000000e+00 0.000000000000000e+00
0.000000000000000e+00 0.000000000000000e+00 0.000000000000000e+00
0.000000000000000e+00 0.000000000000000e+00 0.000000000000000e+00
0.000000000000000e+00 0.000000000000000e+00 0.000000000000000e+00
        </DataArray>
        <DataArray type="Float64" Name="element_owner" format="ascii">
0.000000000000000e+00
0.000000000000000e+00
0.000000000000000e+00
0.000000000000000e+00
0.000000000000000e+00
0.000000000000000e+00
0.000000000000000e+00
0.000000000000000e+00
0.000000000000000e+00
0.000000000000000e+00
0.000000000000000e+00
0.000000000000000e+00
0.000000000000000e+00
0.000000000000000e+00
0.000000000000000e+00
0.000000000000000e+00
0.000000000000000e+00
0.000000000000000e+00
0.000000000000000e+00
0.000000000000000e+00
0.000000000000000e+00
0.000000000000000e+00
0.000000000000000e+00
0.000000000000000e+00
0.000000000000000e+00
0.000000000000000e+00
0.000000000000000e+00
0.000000000000000e+00
0.000000000000000e+00
0.000000000000000e+00
0.000000000000000e+00
0.000000000000000e+00
0.000000000000000e+00
0.000000000000000e+00
0.000000000000000e+00
0.000000000000000e+00
0.000000000000000e+00
0.000000000000000e+00
0.000000000000000e+00
0.000000000000000e+00
0.000000000000000e+00
0.000000000000000e+00
0.000000000000000e+00
0.000000000000000e+00
0.000000000000000e+00
0.000000000000000e+00
0.000000000000000e+00
0.000000000000000e+00
0.000000000000000e+00
0.000000000000000e+00
        </DataArray>
      </CellData>

    </Piece>
  </UnstructuredGrid>
</VTKFile>
