<?xml version="1.0" ?> 
<!-- 
# vtk DataFile Version 3.0
-->
<VTKFile type="UnstructuredGrid" version="0.1" compressor="vtkZLibDataCompressor" byte_order="LittleEndian">
  <UnstructuredGrid>
    <FieldData>
      <DataArray type="Float64" Name="TIME" NumberOfTuples="1" format="ascii">
1.000000000000000e+00 
      </DataArray>
    </FieldData>

    <Piece NumberOfPoints="5472" NumberOfCells="684" >
      <Points>
        <DataArray type="Float64" NumberOfComponents="3" format="ascii">
-1.253225969512080e-01 4.840395094343075e-01 4.999999999999999e-02
-1.253225969512080e-01 4.840395094343076e-01 6.666666666666667e-02
-7.571137528953702e-02 4.942345472058453e-01 6.666666666666667e-02
-7.571137528953706e-02 4.942345472058453e-01 4.999999999999999e-02
-1.460145347356837e-01 5.639589785332624e-01 4.999999999999999e-02
-1.460145347356837e-01 5.639589785332624e-01 6.666666666666669e-02
-8.821001856501655e-02 5.758241534746635e-01 6.666666666666669e-02
-8.821001856501656e-02 5.758241534746635e-01 4.999999999999999e-02
-1.460145347356837e-01 5.639589785332624e-01 4.999999999999999e-02
-1.460145347356837e-01 5.639589785332624e-01 6.666666666666669e-02
-8.821001856501655e-02 5.758241534746635e-01 6.666666666666669e-02
-8.821001856501656e-02 5.758241534746635e-01 4.999999999999999e-02
-1.668737539836385e-01 6.445245468951568e-01 5.000000000000000e-02
-1.668737539836385e-01 6.445245468951569e-01 6.666666666666668e-02
-1.008114497885904e-01 6.580847468281870e-01 6.666666666666668e-02
-1.008114497885903e-01 6.580847468281870e-01 5.000000000000000e-02
-1.668737539836385e-01 6.445245468951568e-01 5.000000000000000e-02
-1.668737539836385e-01 6.445245468951569e-01 6.666666666666668e-02
-1.008114497885904e-01 6.580847468281870e-01 6.666666666666668e-02
-1.008114497885903e-01 6.580847468281870e-01 5.000000000000000e-02
-1.877329732315934e-01 7.250901152570516e-01 5.000000000000000e-02
-1.877329732315934e-01 7.250901152570515e-01 6.666666666666669e-02
-1.134128810121642e-01 7.403453401817103e-01 6.666666666666668e-02
-1.134128810121642e-01 7.403453401817103e-01 5.000000000000000e-02
-1.877329732315934e-01 7.250901152570516e-01 5.000000000000000e-02
-1.877329732315934e-01 7.250901152570515e-01 6.666666666666669e-02
-1.134128810121642e-01 7.403453401817103e-01 6.666666666666668e-02
-1.134128810121642e-01 7.403453401817103e-01 5.000000000000000e-02
-2.085921924795482e-01 8.056556836189462e-01 4.999999999999999e-02
-2.085921924795482e-01 8.056556836189461e-01 6.666666666666668e-02
-1.260143122357380e-01 8.226059335352337e-01 6.666666666666668e-02
-1.260143122357379e-01 8.226059335352338e-01 4.999999999999999e-02
-2.085921924795482e-01 8.056556836189462e-01 4.999999999999999e-02
-2.085921924795482e-01 8.056556836189461e-01 6.666666666666668e-02
-1.260143122357380e-01 8.226059335352337e-01 6.666666666666668e-02
-1.260143122357379e-01 8.226059335352338e-01 4.999999999999999e-02
-2.294514117275031e-01 8.862212519808408e-01 4.999999999999999e-02
-2.294514117275031e-01 8.862212519808408e-01 6.666666666666669e-02
-1.386157434593118e-01 9.048665268887571e-01 6.666666666666669e-02
-1.386157434593118e-01 9.048665268887571e-01 4.999999999999999e-02
-2.294514117275031e-01 8.862212519808408e-01 4.999999999999999e-02
-2.294514117275031e-01 8.862212519808408e-01 6.666666666666669e-02
-1.386157434593118e-01 9.048665268887571e-01 6.666666666666669e-02
-1.386157434593118e-01 9.048665268887571e-01 4.999999999999999e-02
-2.506451939024160e-01 9.680790188686150e-01 5.000000000000000e-02
-2.506451939024161e-01 9.680790188686150e-01 6.666666666666668e-02
-1.514227505790739e-01 9.884690944116905e-01 6.666666666666669e-02
-1.514227505790738e-01 9.884690944116905e-01 5.000000000000000e-02
-7.571137528953706e-02 4.942345472058453e-01 4.999999999999999e-02
-7.571137528953702e-02 4.942345472058453e-01 6.666666666666667e-02
-2.532366460489958e-02 4.993583002323868e-01 6.666666666666667e-02
-2.532366460489961e-02 4.993583002323868e-01 4.999999999999999e-02
-8.821001856501656e-02 5.758241534746635e-01 4.999999999999999e-02
-8.821001856501655e-02 5.758241534746635e-01 6.666666666666669e-02
-2.950382860753510e-02 5.817871123184866e-01 6.666666666666669e-02
-2.950382860753511e-02 5.817871123184866e-01 5.000000000000000e-02
-8.821001856501656e-02 5.758241534746635e-01 4.999999999999999e-02
-8.821001856501655e-02 5.758241534746635e-01 6.666666666666669e-02
-2.950382860753510e-02 5.817871123184866e-01 6.666666666666669e-02
-2.950382860753511e-02 5.817871123184866e-01 5.000000000000000e-02
-1.008114497885903e-01 6.580847468281870e-01 5.000000000000000e-02
-1.008114497885904e-01 6.580847468281870e-01 6.666666666666668e-02
-3.371866126575442e-02 6.648995569354132e-01 6.666666666666668e-02
-3.371866126575442e-02 6.648995569354132e-01 5.000000000000000e-02
-1.008114497885903e-01 6.580847468281870e-01 5.000000000000000e-02
-1.008114497885904e-01 6.580847468281870e-01 6.666666666666668e-02
-3.371866126575442e-02 6.648995569354132e-01 6.666666666666668e-02
-3.371866126575442e-02 6.648995569354132e-01 5.000000000000000e-02
-1.134128810121642e-01 7.403453401817103e-01 5.000000000000000e-02
-1.134128810121642e-01 7.403453401817103e-01 6.666666666666668e-02
-3.793349392397373e-02 7.480120015523399e-01 6.666666666666668e-02
-3.793349392397372e-02 7.480120015523399e-01 5.000000000000000e-02
-1.134128810121642e-01 7.403453401817103e-01 5.000000000000000e-02
-1.134128810121642e-01 7.403453401817103e-01 6.666666666666668e-02
-3.793349392397373e-02 7.480120015523399e-01 6.666666666666668e-02
-3.793349392397372e-02 7.480120015523399e-01 5.000000000000000e-02
-1.260143122357379e-01 8.226059335352338e-01 4.999999999999999e-02
-1.260143122357380e-01 8.226059335352337e-01 6.666666666666668e-02
-4.214832658219303e-02 8.311244461692667e-01 6.666666666666665e-02
-4.214832658219300e-02 8.311244461692667e-01 4.999999999999999e-02
-1.260143122357379e-01 8.226059335352338e-01 4.999999999999999e-02
-1.260143122357380e-01 8.226059335352337e-01 6.666666666666668e-02
-4.214832658219303e-02 8.311244461692667e-01 6.666666666666665e-02
-4.214832658219300e-02 8.311244461692667e-01 4.999999999999999e-02
-1.386157434593118e-01 9.048665268887571e-01 4.999999999999999e-02
-1.386157434593118e-01 9.048665268887571e-01 6.666666666666669e-02
-4.636315924041234e-02 9.142368907861933e-01 6.666666666666668e-02
-4.636315924041230e-02 9.142368907861933e-01 4.999999999999999e-02
-1.386157434593118e-01 9.048665268887571e-01 4.999999999999999e-02
-1.386157434593118e-01 9.048665268887571e-01 6.666666666666669e-02
-4.636315924041234e-02 9.142368907861933e-01 6.666666666666668e-02
-4.636315924041230e-02 9.142368907861933e-01 4.999999999999999e-02
-1.514227505790738e-01 9.884690944116905e-01 5.000000000000000e-02
-1.514227505790739e-01 9.884690944116905e-01 6.666666666666669e-02
-5.064732920979921e-02 9.987166004647734e-01 6.666666666666669e-02
-5.064732920979916e-02 9.987166004647735e-01 4.999999999999999e-02
-2.532366460489961e-02 4.993583002323868e-01 4.999999999999999e-02
-2.532366460489958e-02 4.993583002323868e-01 6.666666666666667e-02
2.532366460489953e-02 4.993583002323868e-01 6.666666666666667e-02
2.532366460489950e-02 4.993583002323868e-01 4.999999999999999e-02
-2.950382860753511e-02 5.817871123184866e-01 5.000000000000000e-02
-2.950382860753510e-02 5.817871123184866e-01 6.666666666666669e-02
2.950382860753503e-02 5.817871123184866e-01 6.666666666666669e-02
2.950382860753502e-02 5.817871123184866e-01 4.999999999999999e-02
-2.950382860753511e-02 5.817871123184866e-01 5.000000000000000e-02
-2.950382860753510e-02 5.817871123184866e-01 6.666666666666669e-02
2.950382860753503e-02 5.817871123184866e-01 6.666666666666669e-02
2.950382860753502e-02 5.817871123184866e-01 4.999999999999999e-02
-3.371866126575442e-02 6.648995569354132e-01 5.000000000000000e-02
-3.371866126575442e-02 6.648995569354132e-01 6.666666666666668e-02
3.371866126575430e-02 6.648995569354135e-01 6.666666666666668e-02
3.371866126575430e-02 6.648995569354134e-01 5.000000000000000e-02
-3.371866126575442e-02 6.648995569354132e-01 5.000000000000000e-02
-3.371866126575442e-02 6.648995569354132e-01 6.666666666666668e-02
3.371866126575430e-02 6.648995569354135e-01 6.666666666666668e-02
3.371866126575430e-02 6.648995569354134e-01 5.000000000000000e-02
-3.793349392397372e-02 7.480120015523399e-01 5.000000000000000e-02
-3.793349392397373e-02 7.480120015523399e-01 6.666666666666668e-02
3.793349392397360e-02 7.480120015523400e-01 6.666666666666669e-02
3.793349392397360e-02 7.480120015523400e-01 4.999999999999999e-02
-3.793349392397372e-02 7.480120015523399e-01 5.000000000000000e-02
-3.793349392397373e-02 7.480120015523399e-01 6.666666666666668e-02
3.793349392397360e-02 7.480120015523400e-01 6.666666666666669e-02
3.793349392397360e-02 7.480120015523400e-01 4.999999999999999e-02
-4.214832658219300e-02 8.311244461692667e-01 4.999999999999999e-02
-4.214832658219303e-02 8.311244461692667e-01 6.666666666666665e-02
4.214832658219288e-02 8.311244461692667e-01 6.666666666666668e-02
4.214832658219290e-02 8.311244461692666e-01 4.999999999999999e-02
-4.214832658219300e-02 8.311244461692667e-01 4.999999999999999e-02
-4.214832658219303e-02 8.311244461692667e-01 6.666666666666665e-02
4.214832658219288e-02 8.311244461692667e-01 6.666666666666668e-02
4.214832658219290e-02 8.311244461692666e-01 4.999999999999999e-02
-4.636315924041230e-02 9.142368907861933e-01 4.999999999999999e-02
-4.636315924041234e-02 9.142368907861933e-01 6.666666666666668e-02
4.636315924041214e-02 9.142368907861933e-01 6.666666666666669e-02
4.636315924041218e-02 9.142368907861933e-01 4.999999999999999e-02
-4.636315924041230e-02 9.142368907861933e-01 4.999999999999999e-02
-4.636315924041234e-02 9.142368907861933e-01 6.666666666666668e-02
4.636315924041214e-02 9.142368907861933e-01 6.666666666666669e-02
4.636315924041218e-02 9.142368907861933e-01 4.999999999999999e-02
-5.064732920979916e-02 9.987166004647735e-01 4.999999999999999e-02
-5.064732920979921e-02 9.987166004647734e-01 6.666666666666669e-02
[...]
  <PointData>
        <DataArray type="Int32" Name="node_gid" format="ascii">
0
1
2
3
4
5
6
7
4
5
6
7
8
9
10
11
8
9
10
11
12
13
14
15
12
13
14
15
16
17
18
19
16
17
18
19
20
21
22
23
20
21
22
23
24
25
26
27
3
2
28
29
7
6
30
31
7
6
30
31
11
10
32
33
11
10
32
33
15
14
34
35
15
14
34
35
19
18
36
37
19
18
36
37
23
22
38
39
23
22
38
39
27
26
40
41
29
28
42
43
31
30
44
45
31
30
44
45
33
32
46
47
33
32
46
47
35
34
48
49
35
34
48
49
37
36
50
51
37
36
50
51
39
38
52
53
39
38
52
53
41
40
54
55
43
42
56
57
45
44
58
59
45
44
58
59
47
46
60
61
47
46
60
61
49
48
62
63
49
48
62
63
51
50
64
65
51
50
64
65
53
52
66
67
53
52
66
67
55
54
68
69
57
56
70
71
59
58
72
73
59
58
72
73
61
60
74
75
61
60
74
75
63
62
76
77
63
62
76
77
65
64
78
79
65
64
78
79
67
66
80
81
67
66
80
81
69
68
82
83
71
70
84
85
73
72
86
87
73
72
86
87
75
74
88
89
75
74
88
89
77
76
90
91
77
76
90
91
79
78
92
93
79
78
92
93
81
80
94
95
81
80
94
95
83
82
96
97
85
84
98
99
87
86
100
101
87
86
100
101
89
88
102
103
89
88
102
103
91
90
104
105
91
90
104
105
93
92
106
107
93
92
106
107
95
94
108
109
95
94
108
109
97
96
110
111
99
98
112
113
101
100
114
115
101
100
114
115
103
102
116
117
103
102
116
117
105
104
118
119
105
104
118
119
107
106
120
121
107
106
120
121
109
108
122
123
109
108
122
123
111
110
124
125
113
112
126
127
115
114
128
129
115
114
128
129
117
116
130
131
117
116
130
131
119
118
132
133
119
118
132
133
121
120
134
135
121
120
134
135
123
122
136
137
123
122
136
137
125
124
138
139
127
126
140
141
129
128
142
143
129
128
142
143
131
130
144
145
131
130
144
145
133
132
146
147
133
132
146
147
135
134
148
149
135
134
148
149
137
136
150
151
137
136
150
151
139
138
152
153
141
140
154
155
143
142
156
157
143
142
156
157
145
144
158
159
145
144
158
159
147
146
160
161
147
146
160
161
149
148
162
163
149
148
162
163
151
150
164
165
151
150
164
165
153
152
166
167
155
154
168
169
157
156
170
171
157
156
170
171
159
158
172
173
159
158
172
173
161
160
174
175
161
160
174
175
163
162
176
177
163
162
176
177
165
164
178
179
165
164
178
179
167
166
180
181
169
168
182
183
171
170
184
185
171
170
184
185
173
172
186
187
173
172
186
187
175
174
188
189
175
174
188
189
177
176
190
191
177
176
190
191
179
178
192
193
179
178
192
193
181
180
194
195
183
182
196
197
185
184
198
199
185
184
198
199
187
186
200
201
187
186
200
201
189
188
202
203
189
188
202
203
191
190
204
205
191
190
204
205
193
192
206
207
193
192
206
207
195
194
208
209
197
196
210
211
199
198
212
213
199
198
212
213
201
200
214
215
201
200
214
215
203
202
216
217
203
202
216
217
205
204
218
219
205
204
218
219
207
206
220
221
207
206
220
221
209
208
222
223
211
210
224
225
213
212
226
227
213
212
226
227
215
214
228
229
215
214
228
229
217
216
230
231
217
216
230
231
219
218
232
233
219
218
232
233
221
220
234
235
221
220
234
235
223
222
236
237
225
224
238
239
227
226
240
241
227
226
240
241
229
228
242
243
229
228
242
243
231
230
244
245
231
230
244
245
233
232
246
247
233
232
246
247
235
234
248
249
235
234
248
249
237
236
250
251
421
420
434
435
423
422
436
437
423
422
436
437
425
424
438
439
425
424
438
439
427
426
440
441
427
426
440
441
429
428
442
443
429
428
442
443
431
430
444
445
431
430
444
445
433
432
446
447
435
434
448
1
437
436
449
5
437
436
449
5
439
438
450
9
439
438
450
9
441
440
451
13
441
440
451
13
443
442
452
17
443
442
452
17
445
444
453
21
445
444
453
21
447
446
454
25
1
448
455
2
5
449
456
6
5
449
456
6
9
450
457
10
9
450
457
10
13
451
458
14
13
451
458
14
17
452
459
18
17
452
459
18
21
453
460
22
21
453
460
22
25
454
461
26
2
455
462
28
6
456
463
30
6
456
463
30
10
457
464
32
10
457
464
32
14
458
465
34
14
458
465
34
18
459
466
36
18
459
466
36
22
460
467
38
22
460
467
38
26
461
468
40
28
462
469
42
30
463
470
44
30
463
470
44
32
464
471
46
32
464
471
46
34
465
472
48
34
465
472
48
36
466
473
50
36
466
473
50
38
467
474
52
38
467
474
52
40
468
475
54
42
469
476
56
44
470
477
58
44
470
477
58
46
471
478
60
46
471
478
60
48
472
479
62
48
472
479
62
50
473
480
64
50
473
480
64
52
474
481
66
52
474
481
66
54
475
482
68
56
476
483
70
58
477
484
72
58
477
484
72
60
478
485
74
60
478
485
74
62
479
486
76
62
479
486
76
64
480
487
78
64
480
487
78
66
481
488
80
66
481
488
80
68
482
489
82
70
483
490
84
72
484
491
86
72
484
491
86
74
485
492
88
74
485
492
88
76
486
493
90
76
486
493
90
78
487
494
92
78
487
494
92
80
488
495
94
80
488
495
94
82
489
496
96
84
490
497
98
86
491
498
100
86
491
498
100
88
492
499
102
88
492
499
102
90
493
500
104
90
493
500
104
92
494
501
106
92
494
501
106
94
495
502
108
94
495
502
108
96
496
503
110
98
497
504
112
100
498
505
114
100
498
505
114
102
499
506
116
102
499
506
116
104
500
507
118
104
500
507
118
106
501
508
120
106
501
508
120
108
502
509
122
108
502
509
122
110
503
510
124
112
504
511
126
114
505
512
128
114
505
512
128
116
506
513
130
116
506
513
130
118
507
514
132
118
507
514
132
120
508
515
134
120
508
515
134
122
509
516
136
122
509
516
136
124
510
517
138
126
511
518
140
128
512
519
142
128
512
519
142
130
513
520
144
130
513
520
144
132
514
521
146
132
514
521
146
134
515
522
148
134
515
522
148
136
516
523
150
136
516
523
150
138
517
524
152
140
518
525
154
142
519
526
156
142
519
526
156
144
520
527
158
144
520
527
158
146
521
528
160
146
521
528
160
148
522
529
162
148
522
529
162
150
523
530
164
150
523
530
164
152
524
531
166
154
525
532
168
156
526
533
170
156
526
533
170
158
527
534
172
158
527
534
172
160
528
535
174
160
528
535
174
162
529
536
176
162
529
536
176
164
530
537
178
164
530
537
178
166
531
538
180
168
532
539
182
170
533
540
184
170
533
540
184
172
534
541
186
172
534
541
186
174
535
542
188
174
535
542
188
176
536
543
190
176
536
543
190
178
537
544
192
178
537
544
192
180
538
545
194
182
539
546
196
184
540
547
198
184
540
547
198
186
541
548
200
186
541
548
200
188
542
549
202
188
542
549
202
190
543
550
204
190
543
550
204
192
544
551
206
192
544
551
206
194
545
552
208
196
546
553
210
198
547
554
212
198
547
554
212
200
548
555
214
200
548
555
214
202
549
556
216
202
549
556
216
204
550
557
218
204
550
557
218
206
551
558
220
206
551
558
220
208
552
559
222
210
553
560
224
212
554
561
226
212
554
561
226
214
555
562
228
214
555
562
228
216
556
563
230
216
556
563
230
218
557
564
232
218
557
564
232
220
558
565
234
220
558
565
234
222
559
566
236
224
560
567
238
226
561
568
240
226
561
568
240
228
562
569
242
228
562
569
242
230
563
570
244
230
563
570
244
232
564
571
246
232
564
571
246
234
565
572
248
234
565
572
248
236
566
573
250
420
658
665
434
422
659
666
436
422
659
666
436
424
660
667
438
424
660
667
438
426
661
668
440
426
661
668
440
428
662
669
442
428
662
669
442
430
663
670
444
430
663
670
444
432
664
671
446
434
665
672
448
436
666
673
449
436
666
673
449
438
667
674
450
438
667
674
450
440
668
675
451
440
668
675
451
442
669
676
452
442
669
676
452
444
670
677
453
444
670
677
453
446
671
678
454
448
672
679
455
449
673
680
456
449
673
680
456
450
674
681
457
450
674
681
457
451
675
682
458
451
675
682
458
452
676
683
459
452
676
683
459
453
677
684
460
453
677
684
460
454
678
685
461
455
679
686
462
456
680
687
463
456
680
687
463
457
681
688
464
457
681
688
464
458
682
689
465
458
682
689
465
459
683
690
466
459
683
690
466
460
684
691
467
460
684
691
467
461
685
692
468
462
686
693
469
463
687
694
470
463
687
694
470
464
688
695
471
464
688
695
471
465
689
696
472
465
689
696
472
466
690
697
473
466
690
697
473
467
691
698
474
467
691
698
474
468
692
699
475
469
693
700
476
470
694
701
477
470
694
701
477
471
695
702
478
471
695
702
478
472
696
703
479
472
696
703
479
473
697
704
480
473
697
704
480
474
698
705
481
474
698
705
481
475
699
706
482
476
700
707
483
477
701
708
484
477
701
708
484
478
702
709
485
478
702
709
485
479
703
710
486
479
703
710
486
480
704
711
487
480
704
711
487
481
705
712
488
481
705
712
488
482
706
713
489
483
707
714
490
484
708
715
491
484
708
715
491
485
709
716
492
485
709
716
492
486
710
717
493
486
710
717
493
487
711
718
494
487
711
718
494
488
712
719
495
488
712
719
495
489
713
720
496
490
714
721
497
491
715
722
498
491
715
722
498
492
716
723
499
492
716
723
499
493
717
724
500
493
717
724
500
494
718
725
501
494
718
725
501
495
719
726
502
495
719
726
502
496
720
727
503
497
721
728
504
498
722
729
505
498
722
729
505
499
723
730
506
499
723
730
506
500
724
731
507
500
724
731
507
501
725
732
508
501
725
732
508
502
726
733
509
502
726
733
509
503
727
734
510
504
728
735
511
505
729
736
512
505
729
736
512
506
730
737
513
506
730
737
513
507
731
738
514
507
731
738
514
508
732
739
515
508
732
739
515
509
733
740
516
509
733
740
516
510
734
741
517
511
735
742
518
512
736
743
519
512
736
743
519
513
737
744
520
513
737
744
520
514
738
745
521
514
738
745
521
515
739
746
522
515
739
746
522
516
740
747
523
516
740
747
523
517
741
748
524
518
742
749
525
519
743
750
526
519
743
750
526
520
744
751
527
520
744
751
527
521
745
752
528
521
745
752
528
522
746
753
529
522
746
753
529
523
747
754
530
523
747
754
530
524
748
755
531
525
749
756
532
526
750
757
533
526
750
757
533
527
751
758
534
527
751
758
534
528
752
759
535
528
752
759
535
529
753
760
536
529
753
760
536
530
754
761
537
530
754
761
537
531
755
762
538
532
756
763
539
533
757
764
540
533
757
764
540
534
758
765
541
534
758
765
541
535
759
766
542
535
759
766
542
536
760
767
543
536
760
767
543
537
761
768
544
537
761
768
544
538
762
769
545
539
763
770
546
540
764
771
547
540
764
771
547
541
765
772
548
541
765
772
548
542
766
773
549
542
766
773
549
543
767
774
550
543
767
774
550
544
768
775
551
544
768
775
551
545
769
776
552
546
770
777
553
547
771
778
554
547
771
778
554
548
772
779
555
548
772
779
555
549
773
780
556
549
773
780
556
550
774
781
557
550
774
781
557
551
775
782
558
551
775
782
558
552
776
783
559
553
777
784
560
554
778
785
561
554
778
785
561
555
779
786
562
555
779
786
562
556
780
787
563
556
780
787
563
557
781
788
564
557
781
788
564
558
782
789
565
558
782
789
565
559
783
790
566
560
784
791
567
561
785
792
568
561
785
792
568
562
786
793
569
562
786
793
569
563
787
794
570
563
787
794
570
564
788
795
571
564
788
795
571
565
789
796
572
565
789
796
572
566
790
797
573
2465
2464
2478
2479
2467
2466
2480
2481
2467
2466
2480
2481
2469
2468
2482
2483
2469
2468
2482
2483
2471
2470
2484
2485
2471
2470
2484
2485
2473
2472
2486
2487
2473
2472
2486
2487
2475
2474
2488
2489
2475
2474
2488
2489
2477
2476
2490
2491
2479
2478
2492
2493
2481
2480
2494
2495
2481
2480
2494
2495
2483
2482
2496
2497
2483
2482
2496
2497
2485
2484
2498
2499
2485
2484
2498
2499
2487
2486
2500
2501
2487
2486
2500
2501
2489
2488
2502
2503
2489
2488
2502
2503
2491
2490
2504
2505
2493
2492
2506
2507
2495
2494
2508
2509
2495
2494
2508
2509
2497
2496
2510
2511
2497
2496
2510
2511
2499
2498
2512
2513
2499
2498
2512
2513
2501
2500
2514
2515
2501
2500
2514
2515
2503
2502
2516
2517
2503
2502
2516
2517
2505
2504
2518
2519
2507
2506
2520
2521
2509
2508
2522
2523
2509
2508
2522
2523
2511
2510
2524
2525
2511
2510
2524
2525
2513
2512
2526
2527
2513
2512
2526
2527
2515
2514
2528
2529
2515
2514
2528
2529
2517
2516
2530
2531
2517
2516
2530
2531
2519
2518
2532
2533
2521
2520
2534
2535
2523
2522
2536
2537
2523
2522
2536
2537
2525
2524
2538
2539
2525
2524
2538
2539
2527
2526
2540
2541
2527
2526
2540
2541
2529
2528
2542
2543
2529
2528
2542
2543
2531
2530
2544
2545
2531
2530
2544
2545
2533
2532
2546
2547
2535
2534
2548
2549
2537
2536
2550
2551
2537
2536
2550
2551
2539
2538
2552
2553
2539
2538
2552
2553
2541
2540
2554
2555
2541
2540
2554
2555
2543
2542
2556
2557
2543
2542
2556
2557
2545
2544
2558
2559
2545
2544
2558
2559
2547
2546
2560
2561
2549
2548
2562
2563
2551
2550
2564
2565
2551
2550
2564
2565
2553
2552
2566
2567
2553
2552
2566
2567
2555
2554
2568
2569
2555
2554
2568
2569
2557
2556
2570
2571
2557
2556
2570
2571
2559
2558
2572
2573
2559
2558
2572
2573
2561
2560
2574
2575
2563
2562
2576
2577
2565
2564
2578
2579
2565
2564
2578
2579
2567
2566
2580
2581
2567
2566
2580
2581
2569
2568
2582
2583
2569
2568
2582
2583
2571
2570
2584
2585
2571
2570
2584
2585
2573
2572
2586
2587
2573
2572
2586
2587
2575
2574
2588
2589
2577
2576
2590
2591
2579
2578
2592
2593
2579
2578
2592
2593
2581
2580
2594
2595
2581
2580
2594
2595
2583
2582
2596
2597
2583
2582
2596
2597
2585
2584
2598
2599
2585
2584
2598
2599
2587
2586
2600
2601
2587
2586
2600
2601
2589
2588
2602
2603
2591
2590
2604
2605
2593
2592
2606
2607
2593
2592
2606
2607
2595
2594
2608
2609
2595
2594
2608
2609
2597
2596
2610
2611
2597
2596
2610
2611
2599
2598
2612
2613
2599
2598
2612
2613
2601
2600
2614
2615
2601
2600
2614
2615
2603
2602
2616
2617
2605
2604
2618
2619
2607
2606
2620
2621
2607
2606
2620
2621
2609
2608
2622
2623
2609
2608
2622
2623
2611
2610
2624
2625
2611
2610
2624
2625
2613
2612
2626
2627
2613
2612
2626
2627
2615
2614
2628
2629
2615
2614
2628
2629
2617
2616
2630
2631
2619
2618
2632
2633
2621
2620
2634
2635
2621
2620
2634
2635
2623
2622
2636
2637
2623
2622
2636
2637
2625
2624
2638
2639
2625
2624
2638
2639
2627
2626
2640
2641
2627
2626
2640
2641
2629
2628
2642
2643
2629
2628
2642
2643
2631
2630
2644
2645
2633
2632
2646
2647
2635
2634
2648
2649
2635
2634
2648
2649
2637
2636
2650
2651
2637
2636
2650
2651
2639
2638
2652
2653
2639
2638
2652
2653
2641
2640
2654
2655
2641
2640
2654
2655
2643
2642
2656
2657
2643
2642
2656
2657
2645
2644
2658
2659
2647
2646
2660
2661
2649
2648
2662
2663
2649
2648
2662
2663
2651
2650
2664
2665
2651
2650
2664
2665
2653
2652
2666
2667
2653
2652
2666
2667
2655
2654
2668
2669
2655
2654
2668
2669
2657
2656
2670
2671
2657
2656
2670
2671
2659
2658
2672
2673
2661
2660
2674
2675
2663
2662
2676
2677
2663
2662
2676
2677
2665
2664
2678
2679
2665
2664
2678
2679
2667
2666
2680
2681
2667
2666
2680
2681
2669
2668
2682
2683
2669
2668
2682
2683
2671
2670
2684
2685
2671
2670
2684
2685
2673
2672
2686
2687
2675
2674
2688
2689
2677
2676
2690
2691
2677
2676
2690
2691
2679
2678
2692
2693
2679
2678
2692
2693
2681
2680
2694
2695
2681
2680
2694
2695
2683
2682
2696
2697
2683
2682
2696
2697
2685
2684
2698
2699
2685
2684
2698
2699
2687
2686
2700
2701
2689
2688
2702
2703
2691
2690
2704
2705
2691
2690
2704
2705
2693
2692
2706
2707
2693
2692
2706
2707
2695
2694
2708
2709
2695
2694
2708
2709
2697
2696
2710
2711
2697
2696
2710
2711
2699
2698
2712
2713
2699
2698
2712
2713
2701
2700
2714
2715
2703
2702
2716
2717
2705
2704
2718
2719
2705
2704
2718
2719
2707
2706
2720
2721
2707
2706
2720
2721
2709
2708
2722
2723
2709
2708
2722
2723
2711
2710
2724
2725
2711
2710
2724
2725
2713
2712
2726
2727
2713
2712
2726
2727
2715
2714
2728
2729
2717
2716
2730
2731
2719
2718
2732
2733
2719
2718
2732
2733
2721
2720
2734
2735
2721
2720
2734
2735
2723
2722
2736
2737
2723
2722
2736
2737
2725
2724
2738
2739
2725
2724
2738
2739
2727
2726
2740
2741
2727
2726
2740
2741
2729
2728
2742
2743
2464
2814
2821
2478
2466
2815
2822
2480
2466
2815
2822
2480
2468
2816
2823
2482
2468
2816
2823
2482
2470
2817
2824
2484
2470
2817
2824
2484
2472
2818
2825
2486
2472
2818
2825
2486
2474
2819
2826
2488
2474
2819
2826
2488
2476
2820
2827
2490
2478
2821
2828
2492
2480
2822
2829
2494
2480
2822
2829
2494
2482
2823
2830
2496
2482
2823
2830
2496
2484
2824
2831
2498
2484
2824
2831
2498
2486
2825
2832
2500
2486
2825
2832
2500
2488
2826
2833
2502
2488
2826
2833
2502
2490
2827
2834
2504
2492
2828
2835
2506
2494
2829
2836
2508
2494
2829
2836
2508
2496
2830
2837
2510
2496
2830
2837
2510
2498
2831
2838
2512
2498
2831
2838
2512
2500
2832
2839
2514
2500
2832
2839
2514
2502
2833
2840
2516
2502
2833
2840
2516
2504
2834
2841
2518
2506
2835
2842
2520
2508
2836
2843
2522
2508
2836
2843
2522
2510
2837
2844
2524
2510
2837
2844
2524
2512
2838
2845
2526
2512
2838
2845
2526
2514
2839
2846
2528
2514
2839
2846
2528
2516
2840
2847
2530
2516
2840
2847
2530
2518
2841
2848
2532
2520
2842
2849
2534
2522
2843
2850
2536
2522
2843
2850
2536
2524
2844
2851
2538
2524
2844
2851
2538
2526
2845
2852
2540
2526
2845
2852
2540
2528
2846
2853
2542
2528
2846
2853
2542
2530
2847
2854
2544
2530
2847
2854
2544
2532
2848
2855
2546
2534
2849
2856
2548
2536
2850
2857
2550
2536
2850
2857
2550
2538
2851
2858
2552
2538
2851
2858
2552
2540
2852
2859
2554
2540
2852
2859
2554
2542
2853
2860
2556
2542
2853
2860
2556
2544
2854
2861
2558
2544
2854
2861
2558
2546
2855
2862
2560
2548
2856
2863
2562
2550
2857
2864
2564
2550
2857
2864
2564
2552
2858
2865
2566
2552
2858
2865
2566
2554
2859
2866
2568
2554
2859
2866
2568
2556
2860
2867
2570
2556
2860
2867
2570
2558
2861
2868
2572
2558
2861
2868
2572
2560
2862
2869
2574
2562
2863
2870
2576
2564
2864
2871
2578
2564
2864
2871
2578
2566
2865
2872
2580
2566
2865
2872
2580
2568
2866
2873
2582
2568
2866
2873
2582
2570
2867
2874
2584
2570
2867
2874
2584
2572
2868
2875
2586
2572
2868
2875
2586
2574
2869
2876
2588
2576
2870
2877
2590
2578
2871
2878
2592
2578
2871
2878
2592
2580
2872
2879
2594
2580
2872
2879
2594
2582
2873
2880
2596
2582
2873
2880
2596
2584
2874
2881
2598
2584
2874
2881
2598
2586
2875
2882
2600
2586
2875
2882
2600
2588
2876
2883
2602
2590
2877
2884
2604
2592
2878
2885
2606
2592
2878
2885
2606
2594
2879
2886
2608
2594
2879
2886
2608
2596
2880
2887
2610
2596
2880
2887
2610
2598
2881
2888
2612
2598
2881
2888
2612
2600
2882
2889
2614
2600
2882
2889
2614
2602
2883
2890
2616
2604
2884
2891
2618
2606
2885
2892
2620
2606
2885
2892
2620
2608
2886
2893
2622
2608
2886
2893
2622
2610
2887
2894
2624
2610
2887
2894
2624
2612
2888
2895
2626
2612
2888
2895
2626
2614
2889
2896
2628
2614
2889
2896
2628
2616
2890
2897
2630
2618
2891
2898
2632
2620
2892
2899
2634
2620
2892
2899
2634
2622
2893
2900
2636
2622
2893
2900
2636
2624
2894
2901
2638
2624
2894
2901
2638
2626
2895
2902
2640
2626
2895
2902
2640
2628
2896
2903
2642
2628
2896
2903
2642
2630
2897
2904
2644
2632
2898
2905
2646
2634
2899
2906
2648
2634
2899
2906
2648
2636
2900
2907
2650
2636
2900
2907
2650
2638
2901
2908
2652
2638
2901
2908
2652
2640
2902
2909
2654
2640
2902
2909
2654
2642
2903
2910
2656
2642
2903
2910
2656
2644
2904
2911
2658
2646
2905
2912
2660
2648
2906
2913
2662
2648
2906
2913
2662
2650
2907
2914
2664
2650
2907
2914
2664
2652
2908
2915
2666
2652
2908
2915
2666
2654
2909
2916
2668
2654
2909
2916
2668
2656
2910
2917
2670
2656
2910
2917
2670
2658
2911
2918
2672
2660
2912
2919
2674
2662
2913
2920
2676
2662
2913
2920
2676
2664
2914
2921
2678
2664
2914
2921
2678
2666
2915
2922
2680
2666
2915
2922
2680
2668
2916
2923
2682
2668
2916
2923
2682
2670
2917
2924
2684
2670
2917
2924
2684
2672
2918
2925
2686
2674
2919
2926
2688
2676
2920
2927
2690
2676
2920
2927
2690
2678
2921
2928
2692
2678
2921
2928
2692
2680
2922
2929
2694
2680
2922
2929
2694
2682
2923
2930
2696
2682
2923
2930
2696
2684
2924
2931
2698
2684
2924
2931
2698
2686
2925
2932
2700
2688
2926
2933
2702
2690
2927
2934
2704
2690
2927
2934
2704
2692
2928
2935
2706
2692
2928
2935
2706
2694
2929
2936
2708
2694
2929
2936
2708
2696
2930
2937
2710
2696
2930
2937
2710
2698
2931
2938
2712
2698
2931
2938
2712
2700
2932
2939
2714
2702
2933
2940
2716
2704
2934
2941
2718
2704
2934
2941
2718
2706
2935
2942
2720
2706
2935
2942
2720
2708
2936
2943
2722
2708
2936
2943
2722
2710
2937
2944
2724
2710
2937
2944
2724
2712
2938
2945
2726
2712
2938
2945
2726
2714
2939
2946
2728
2716
2940
2947
2730
2718
2941
2948
2732
2718
2941
2948
2732
2720
2942
2949
2734
2720
2942
2949
2734
2722
2943
2950
2736
2722
2943
2950
2736
2724
2944
2951
2738
2724
2944
2951
2738
2726
2945
2952
2740
2726
2945
2952
2740
2728
2946
2953
2742
2814
3024
3031
2821
2815
3025
3032
2822
2815
3025
3032
2822
2816
3026
3033
2823
2816
3026
3033
2823
2817
3027
3034
2824
2817
3027
3034
2824
2818
3028
3035
2825
2818
3028
3035
2825
2819
3029
3036
2826
2819
3029
3036
2826
2820
3030
3037
2827
2821
3031
0
2828
2822
3032
4
2829
2822
3032
4
2829
2823
3033
8
2830
2823
3033
8
2830
2824
3034
12
2831
2824
3034
12
2831
2825
3035
16
2832
2825
3035
16
2832
2826
3036
20
2833
2826
3036
20
2833
2827
3037
24
2834
2828
0
3
2835
2829
4
7
2836
2829
4
7
2836
2830
8
11
2837
2830
8
11
2837
2831
12
15
2838
2831
12
15
2838
2832
16
19
2839
2832
16
19
2839
2833
20
23
2840
2833
20
23
2840
2834
24
27
2841
2835
3
29
2842
2836
7
31
2843
2836
7
31
2843
2837
11
33
2844
2837
11
33
2844
2838
15
35
2845
2838
15
35
2845
2839
19
37
2846
2839