<?xml version="1.0" ?> 
<!-- 
# vtk DataFile Version 3.0
-->
<VTKFile type="UnstructuredGrid" version="0.1" compressor="vtkZLibDataCompressor" byte_order="LittleEndian">
  <UnstructuredGrid>
    <FieldData>
      <DataArray type="Float64" Name="TIME" NumberOfTuples="1" format="ascii">
1.000000000000000e+00 
      </DataArray>
    </FieldData>

    <Piece NumberOfPoints="35" NumberOfCells="2" >
      <Points>
        <DataArray type="Float64" NumberOfComponents="3" format="ascii">
-5.000000000000000e-01 -5.000000000000000e-01 0.000000000000000e+00
5.000000000000000e-01 -5.000000000000000e-01 0.000000000000000e+00
5.000000000000000e-01 5.000000000000000e-01 1.000000000000000e-07
-5.000000000000000e-01 5.000000000000000e-01 0.000000000000000e+00
-5.000000000000000e-01 -5.000000000000000e-01 9.000000000000000e-01
5.000000000000000e-01 -5.000000000000000e-01 9.000000000000000e-01
5.000000000000000e-01 5.000000000000000e-01 9.000000000000000e-01
-5.000000000000000e-01 5.000000000000000e-01 9.000000000000000e-01
0.000000000000000e+00 -5.000000000000000e-01 0.000000000000000e+00
5.000000000000000e-01 0.000000000000000e+00 2.500000000000000e-08
0.000000000000000e+00 5.000000000000000e-01 2.500000000000000e-08
-5.000000000000000e-01 0.000000000000000e+00 0.000000000000000e+00
0.000000000000000e+00 -5.000000000000000e-01 9.000000000000000e-01
5.000000000000000e-01 0.000000000000000e+00 9.000000000000000e-01
0.000000000000000e+00 5.000000000000000e-01 9.000000000000000e-01
-5.000000000000000e-01 0.000000000000000e+00 9.000000000000000e-01
-5.000000000000000e-01 -5.000000000000000e-01 4.250000000000000e-01
5.000000000000000e-01 -5.000000000000000e-01 4.250000000000000e-01
5.000000000000000e-01 5.000000000000000e-01 4.250000250000000e-01
-5.000000000000000e-01 5.000000000000000e-01 4.250000000000000e-01
-5.000000000000000e-01 0.000000000000000e+00 4.250000000000000e-01
5.000000000000000e-01 0.000000000000000e+00 4.250000062500001e-01
0.000000000000000e+00 -5.000000000000000e-01 4.250000000000000e-01
0.000000000000000e+00 5.000000000000000e-01 4.250000062500001e-01
0.000000000000000e+00 0.000000000000000e+00 6.250000000000000e-09
0.000000000000000e+00 0.000000000000000e+00 9.000000000000001e-01
0.000000000000000e+00 0.000000000000000e+00 4.250000015625001e-01
-5.000000000000000e-01 -5.000000000000000e-01 5.000000000000000e-01
-5.000000000000000e-01 -5.000000000000000e-01 -5.000000000000000e-01
-5.000000000000000e-01 5.000000000000000e-01 -5.000000000000000e-01
-5.000000000000000e-01 5.000000000000000e-01 5.000000000000000e-01
5.000000000000000e-01 -5.000000000000000e-01 5.000000000000000e-01
5.000000000000000e-01 -5.000000000000000e-01 -5.000000000000000e-01
5.000000000000000e-01 5.000000000000000e-01 -5.000000000000000e-01
5.000000000000000e-01 5.000000000000000e-01 5.000000000000000e-01
        </DataArray>
      </Points>

      <Cells>
        <DataArray type="Int32" Name="connectivity" format="ascii">
0 1 2 3 4 5 6 7 8 9 10 11 12 13 14 15 16 17 18 19 20 21 22 23 24 25 26 27 28 29 30 31 32 33 34 
        </DataArray>
        <DataArray type="Int32" Name="offsets" format="ascii">
27 35 
        </DataArray>
        <DataArray type="UInt8" Name="types" format="ascii">
29 12 
        </DataArray>
      </Cells>

  <PointData>
        <DataArray type="Float64" Name="displacement" NumberOfComponents="3" format="ascii">
5.409731749237511e-09 5.411093510781502e-09 -3.612311789704570e-02
2.033004353629754e-02 6.072369286961810e-09 -3.612312073080328e-02
2.033004136705148e-02 2.033004542522798e-02 -3.612313389826848e-02
2.013425127272457e-09 2.033004353842693e-02 -3.612312073063745e-02
1.035756853381135e-08 1.035986719585873e-08 -1.000000000000000e-01
2.033004316866024e-02 1.315180304454537e-08 -1.000000000000000e-01
2.033004033502243e-02 2.033004439321537e-02 -1.000000000000000e-01
9.093585480445947e-09 2.033004317098360e-02 -1.000000000000000e-01
1.016502451648183e-02 5.536771423504663e-09 -3.612311969469678e-02
2.033004267489570e-02 1.016502592565970e-02 -3.612312628623946e-02
1.016502186707351e-02 2.033004470507666e-02 -3.612312628627684e-02
3.506590409274172e-09 1.016502451825219e-02 -3.612311969473410e-02
1.016502692067971e-02 1.199994933544768e-08 -1.000000000000000e-01
2.033004103279609e-02 1.016502897960387e-02 -1.000000000000000e-01
1.016502492140918e-02 2.033004306301985e-02 -1.000000000000000e-01
9.969725528460558e-09 1.016502692298900e-02 -1.000000000000000e-01
7.714185613114418e-09 7.716304902847765e-09 -6.628720091812039e-02
2.033004415255320e-02 1.042053882227574e-08 -6.628720291652684e-02
2.033004141385125e-02 2.033004547211936e-02 -6.628720796809982e-02
6.362267507193194e-09 2.033004415467588e-02 -6.628720291647980e-02
7.000427936890951e-09 1.016502605997936e-02 -6.628720425561127e-02
2.033004252156058e-02 1.016502819566881e-02 -6.628720763344866e-02
1.016502605785921e-02 9.030640868199938e-09 -6.628720425554412e-02
1.016502413740038e-02 2.033004455177344e-02 -6.628720763351577e-02
1.016502319707005e-02 1.016502522727777e-02 -3.612312314365972e-02
1.016502571406111e-02 1.016502774429578e-02 -1.000000000000000e-01
1.016502496323129e-02 1.016502699345409e-02 -6.628720892137478e-02
1.096285228895884e-08 1.096556492650412e-08 -7.097429577922690e-02
0.000000000000000e+00 0.000000000000000e+00 0.000000000000000e+00
-4.060385487288120e-09 2.033004272468870e-02 0.000000000000000e+00
8.163017727111902e-09 2.033004436044868e-02 -7.097430188701206e-02
2.033004435848067e-02 1.222067627472466e-08 -7.097430188702065e-02
2.033004272227043e-02 0.000000000000000e+00 0.000000000000000e+00
2.033003830049076e-02 2.033004235845782e-02 0.000000000000000e+00
2.033004482878244e-02 2.033004888718562e-02 -7.097431480947769e-02
        </DataArray>
      </PointData>

    </Piece>
  </UnstructuredGrid>
</VTKFile>
