<?xml version="1.0" ?> 
<!-- 
# vtk DataFile Version 3.0
-->
<VTKFile type="UnstructuredGrid" version="0.1" compressor="vtkZLibDataCompressor" byte_order="LittleEndian">
  <UnstructuredGrid>
    <FieldData>
      <DataArray type="Float64" Name="TIME" NumberOfTuples="1" format="ascii">
9.999999999999859e+01 
      </DataArray>
    </FieldData>

    <Piece NumberOfPoints="4" NumberOfCells="2" >
      <Points>
        <DataArray type="Float64" NumberOfComponents="3" format="ascii">
0.000000000000000e+00 0.000000000000000e+00 0.000000000000000e+00
1.000000000000000e+01 0.000000000000000e+00 0.000000000000000e+00
1.000000000000000e+01 0.000000000000000e+00 0.000000000000000e+00
1.200000000000000e+01 2.000000000000000e+00 0.000000000000000e+00
        </DataArray>
      </Points>

      <Cells>
        <DataArray type="Int32" Name="connectivity" format="ascii">
0 1 2 3 
        </DataArray>
        <DataArray type="Int32" Name="offsets" format="ascii">
2 4 
        </DataArray>
        <DataArray type="UInt8" Name="types" format="ascii">
3 3 
        </DataArray>
      </Cells>

  <PointData>
        <DataArray type="Float64" Name="NodeIDs" format="ascii">
0.000000000000000e+00
1.000000000000000e+00
1.000000000000000e+00
2.000000000000000e+00
        </DataArray>
        <DataArray type="Float64" Name="pressure" format="ascii">
0.000000000000000e+00
1.196416412204552e+00
1.196416412204552e+00
0.000000000000000e+00
        </DataArray>
        <DataArray type="Float64" Name="pressure_error" format="ascii">
0.000000000000000e+00
0.000000000000000e+00
0.000000000000000e+00
0.000000000000000e+00
        </DataArray>
        <DataArray type="Float64" Name="radii" format="ascii">
5.641895835477563e-01
5.641895835477563e-01
5.641895835477563e-01
0.000000000000000e+00
        </DataArray>
  </PointData>
  <CellData>
        <DataArray type="Float64" Name="Owner" format="ascii">
0.000000000000000e+00
0.000000000000000e+00
        </DataArray>
        <DataArray type="Float64" Name="acin_bc" format="ascii">
0.000000000000000e+00
0.000000000000000e+00
        </DataArray>
        <DataArray type="Float64" Name="acini_volume" format="ascii">
0.000000000000000e+00
1.145766499908752e+00
        </DataArray>
        <DataArray type="Float64" Name="acini_volume0" format="ascii">
0.000000000000000e+00
1.000000000000000e+00
        </DataArray>
        <DataArray type="Float64" Name="acini_volumetric_strain" format="ascii">
0.000000000000000e+00
1.457664999087525e-01
        </DataArray>
        <DataArray type="Float64" Name="airway_acinus_dep" format="ascii">
0.000000000000000e+00
0.000000000000000e+00
        </DataArray>
        <DataArray type="Float64" Name="airway_volume" format="ascii">
1.000000728073121e+01
0.000000000000000e+00
        </DataArray>
        <DataArray type="Float64" Name="airway_volume0" format="ascii">
1.000000000000000e+01
0.000000000000000e+00
        </DataArray>
        <DataArray type="Float64" Name="elemArea0" format="ascii">
1.000000000000000e+00
0.000000000000000e+00
        </DataArray>
        <DataArray type="Float64" Name="flow_in" format="ascii">
-1.196416412204551e-07
-0.000000000000000e+00
        </DataArray>
        <DataArray type="Float64" Name="flow_out" format="ascii">
0.000000000000000e+00
-0.000000000000000e+00
        </DataArray>
        <DataArray type="Float64" Name="generations" format="ascii">
0.000000000000000e+00
-1.000000000000000e+00
        </DataArray>
        <DataArray type="Float64" Name="open" format="ascii">
0.000000000000000e+00
0.000000000000000e+00
        </DataArray>
        <DataArray type="Float64" Name="p_extn" format="ascii">
0.000000000000000e+00
0.000000000000000e+00
        </DataArray>
        <DataArray type="Float64" Name="p_extnp" format="ascii">
0.000000000000000e+00
0.000000000000000e+00
        </DataArray>
        <DataArray type="Float64" Name="radius_current" format="ascii">
5.641897889333545e-01
0.000000000000000e+00
        </DataArray>
        <DataArray type="Float64" Name="x_np" format="ascii">
0.000000000000000e+00
0.000000000000000e+00
        </DataArray>
      </CellData>

    </Piece>
  </UnstructuredGrid>
</VTKFile>
