<?xml version="1.0" ?> 
<!-- 
# vtk DataFile Version 3.0
-->
<VTKFile type="UnstructuredGrid" version="0.1" compressor="vtkZLibDataCompressor" byte_order="LittleEndian">
  <UnstructuredGrid>
    <FieldData>
      <DataArray type="Float64" Name="TIME" NumberOfTuples="1" format="ascii">
5.000000000000000e+00 
      </DataArray>
    </FieldData>

    <Piece NumberOfPoints="304" NumberOfCells="31" >
      <Points>
        <DataArray type="Float64" NumberOfComponents="3" format="ascii">
0.000000000000000e+00 0.000000000000000e+00 0.000000000000000e+00
1.000000000000000e+00 0.000000000000000e+00 0.000000000000000e+00
1.000000000000000e+00 1.000000000000000e+00 0.000000000000000e+00
0.000000000000000e+00 1.000000000000000e+00 0.000000000000000e+00
0.000000000000000e+00 0.000000000000000e+00 1.000000000000000e+00
1.000000000000000e+00 0.000000000000000e+00 1.000000000000000e+00
1.000000000000000e+00 1.000000000000000e+00 1.000000000000000e+00
0.000000000000000e+00 1.000000000000000e+00 1.000000000000000e+00
1.000000000000000e+00 0.000000000000000e+00 0.000000000000000e+00
2.000000000000000e+00 0.000000000000000e+00 0.000000000000000e+00
2.000000000000000e+00 1.000000000000000e+00 0.000000000000000e+00
1.000000000000000e+00 1.000000000000000e+00 0.000000000000000e+00
1.000000000000000e+00 0.000000000000000e+00 1.000000000000000e+00
2.000000000000000e+00 0.000000000000000e+00 1.000000000000000e+00
2.000000000000000e+00 1.000000000000000e+00 1.000000000000000e+00
1.000000000000000e+00 1.000000000000000e+00 1.000000000000000e+00
2.000000000000000e+00 0.000000000000000e+00 0.000000000000000e+00
3.000000000000000e+00 0.000000000000000e+00 0.000000000000000e+00
3.000000000000000e+00 1.000000000000000e+00 0.000000000000000e+00
2.000000000000000e+00 1.000000000000000e+00 0.000000000000000e+00
2.000000000000000e+00 0.000000000000000e+00 1.000000000000000e+00
3.000000000000000e+00 0.000000000000000e+00 1.000000000000000e+00
3.000000000000000e+00 1.000000000000000e+00 1.000000000000000e+00
2.000000000000000e+00 1.000000000000000e+00 1.000000000000000e+00
0.000000000000000e+00 1.500000000000000e+00 1.000000000000000e+00
0.000000000000000e+00 1.500000000000000e+00 0.000000000000000e+00
0.000000000000000e+00 2.000000000000000e+00 5.000000000000000e-01
5.000000000000000e-01 1.500000000000000e+00 5.000000000000000e-01
0.000000000000000e+00 1.500000000000000e+00 5.000000000000000e-01
0.000000000000000e+00 1.750000000000000e+00 2.500000000000000e-01
0.000000000000000e+00 1.750000000000000e+00 7.500000000000000e-01
2.500000000000000e-01 1.500000000000000e+00 7.500000000000000e-01
2.500000000000000e-01 1.500000000000000e+00 2.500000000000000e-01
2.500000000000000e-01 1.750000000000000e+00 5.000000000000000e-01
0.000000000000000e+00 1.500000000000000e+00 0.000000000000000e+00
0.000000000000000e+00 2.500000000000000e+00 0.000000000000000e+00
0.000000000000000e+00 2.000000000000000e+00 5.000000000000000e-01
5.000000000000000e-01 2.000000000000000e+00 0.000000000000000e+00
0.000000000000000e+00 2.000000000000000e+00 0.000000000000000e+00
0.000000000000000e+00 2.250000000000000e+00 2.500000000000000e-01
0.000000000000000e+00 1.750000000000000e+00 2.500000000000000e-01
2.500000000000000e-01 1.750000000000000e+00 0.000000000000000e+00
2.500000000000000e-01 2.250000000000000e+00 0.000000000000000e+00
2.500000000000000e-01 2.000000000000000e+00 2.500000000000000e-01
0.000000000000000e+00 2.500000000000000e+00 0.000000000000000e+00
0.000000000000000e+00 2.500000000000000e+00 1.000000000000000e+00
0.000000000000000e+00 2.000000000000000e+00 5.000000000000000e-01
5.000000000000000e-01 2.500000000000000e+00 5.000000000000000e-01
0.000000000000000e+00 2.500000000000000e+00 5.000000000000000e-01
0.000000000000000e+00 2.250000000000000e+00 7.500000000000000e-01
0.000000000000000e+00 2.250000000000000e+00 2.500000000000000e-01
2.500000000000000e-01 2.500000000000000e+00 2.500000000000000e-01
2.500000000000000e-01 2.500000000000000e+00 7.500000000000000e-01
2.500000000000000e-01 2.250000000000000e+00 5.000000000000000e-01
0.000000000000000e+00 2.500000000000000e+00 1.000000000000000e+00
0.000000000000000e+00 1.500000000000000e+00 1.000000000000000e+00
0.000000000000000e+00 2.000000000000000e+00 5.000000000000000e-01
5.000000000000000e-01 2.000000000000000e+00 1.000000000000000e+00
0.000000000000000e+00 2.000000000000000e+00 1.000000000000000e+00
0.000000000000000e+00 1.750000000000000e+00 7.500000000000000e-01
0.000000000000000e+00 2.250000000000000e+00 7.500000000000000e-01
2.500000000000000e-01 2.250000000000000e+00 1.000000000000000e+00
2.500000000000000e-01 1.750000000000000e+00 1.000000000000000e+00
2.500000000000000e-01 2.000000000000000e+00 7.500000000000000e-01
0.000000000000000e+00 1.500000000000000e+00 1.000000000000000e+00
1.000000000000000e+00 1.500000000000000e+00 1.000000000000000e+00
5.000000000000000e-01 1.500000000000000e+00 5.000000000000000e-01
5.000000000000000e-01 2.000000000000000e+00 1.000000000000000e+00
5.000000000000000e-01 1.500000000000000e+00 1.000000000000000e+00
7.500000000000000e-01 1.500000000000000e+00 7.500000000000000e-01
2.500000000000000e-01 1.500000000000000e+00 7.500000000000000e-01
2.500000000000000e-01 1.750000000000000e+00 1.000000000000000e+00
7.500000000000000e-01 1.750000000000000e+00 1.000000000000000e+00
5.000000000000000e-01 1.750000000000000e+00 7.500000000000000e-01
0.000000000000000e+00 1.500000000000000e+00 0.000000000000000e+00
1.000000000000000e+00 1.500000000000000e+00 0.000000000000000e+00
5.000000000000000e-01 2.000000000000000e+00 0.000000000000000e+00
5.000000000000000e-01 1.500000000000000e+00 5.000000000000000e-01
5.000000000000000e-01 1.500000000000000e+00 0.000000000000000e+00
7.500000000000000e-01 1.750000000000000e+00 0.000000000000000e+00
2.500000000000000e-01 1.750000000000000e+00 0.000000000000000e+00
2.500000000000000e-01 1.500000000000000e+00 2.500000000000000e-01
7.500000000000000e-01 1.500000000000000e+00 2.500000000000000e-01
5.000000000000000e-01 1.750000000000000e+00 2.500000000000000e-01
0.000000000000000e+00 2.500000000000000e+00 0.000000000000000e+00
1.000000000000000e+00 2.500000000000000e+00 0.000000000000000e+00
5.000000000000000e-01 2.500000000000000e+00 5.000000000000000e-01
5.000000000000000e-01 2.000000000000000e+00 0.000000000000000e+00
5.000000000000000e-01 2.500000000000000e+00 0.000000000000000e+00
7.500000000000000e-01 2.500000000000000e+00 2.500000000000000e-01
2.500000000000000e-01 2.500000000000000e+00 2.500000000000000e-01
2.500000000000000e-01 2.250000000000000e+00 0.000000000000000e+00
7.500000000000000e-01 2.250000000000000e+00 0.000000000000000e+00
5.000000000000000e-01 2.250000000000000e+00 2.500000000000000e-01
0.000000000000000e+00 2.500000000000000e+00 1.000000000000000e+00
1.000000000000000e+00 2.500000000000000e+00 1.000000000000000e+00
5.000000000000000e-01 2.000000000000000e+00 1.000000000000000e+00
5.000000000000000e-01 2.500000000000000e+00 5.000000000000000e-01
5.000000000000000e-01 2.500000000000000e+00 1.000000000000000e+00
7.500000000000000e-01 2.250000000000000e+00 1.000000000000000e+00
2.500000000000000e-01 2.250000000000000e+00 1.000000000000000e+00
2.500000000000000e-01 2.500000000000000e+00 7.500000000000000e-01
7.500000000000000e-01 2.500000000000000e+00 7.500000000000000e-01
5.000000000000000e-01 2.250000000000000e+00 7.500000000000000e-01
1.000000000000000e+00 1.500000000000000e+00 1.000000000000000e+00
1.000000000000000e+00 1.500000000000000e+00 0.000000000000000e+00
5.000000000000000e-01 1.500000000000000e+00 5.000000000000000e-01
1.000000000000000e+00 2.000000000000000e+00 5.000000000000000e-01
1.000000000000000e+00 1.500000000000000e+00 5.000000000000000e-01
7.500000000000000e-01 1.500000000000000e+00 2.500000000000000e-01
7.500000000000000e-01 1.500000000000000e+00 7.500000000000000e-01
1.000000000000000e+00 1.750000000000000e+00 7.500000000000000e-01
1.000000000000000e+00 1.750000000000000e+00 2.500000000000000e-01
7.500000000000000e-01 1.750000000000000e+00 5.000000000000000e-01
1.000000000000000e+00 1.500000000000000e+00 0.000000000000000e+00
1.000000000000000e+00 2.500000000000000e+00 0.000000000000000e+00
5.000000000000000e-01 2.000000000000000e+00 0.000000000000000e+00
1.000000000000000e+00 2.000000000000000e+00 5.000000000000000e-01
1.000000000000000e+00 2.000000000000000e+00 0.000000000000000e+00
7.500000000000000e-01 2.250000000000000e+00 0.000000000000000e+00
7.500000000000000e-01 1.750000000000000e+00 0.000000000000000e+00
1.000000000000000e+00 1.750000000000000e+00 2.500000000000000e-01
1.000000000000000e+00 2.250000000000000e+00 2.500000000000000e-01
7.500000000000000e-01 2.000000000000000e+00 2.500000000000000e-01
1.000000000000000e+00 2.500000000000000e+00 0.000000000000000e+00
1.000000000000000e+00 2.500000000000000e+00 1.000000000000000e+00
5.000000000000000e-01 2.500000000000000e+00 5.000000000000000e-01
1.000000000000000e+00 2.000000000000000e+00 5.000000000000000e-01
1.000000000000000e+00 2.500000000000000e+00 5.000000000000000e-01
7.500000000000000e-01 2.500000000000000e+00 7.500000000000000e-01
7.500000000000000e-01 2.500000000000000e+00 2.500000000000000e-01
1.000000000000000e+00 2.250000000000000e+00 2.500000000000000e-01
1.000000000000000e+00 2.250000000000000e+00 7.500000000000000e-01
7.500000000000000e-01 2.250000000000000e+00 5.000000000000000e-01
1.000000000000000e+00 2.500000000000000e+00 1.000000000000000e+00
1.000000000000000e+00 1.500000000000000e+00 1.000000000000000e+00
5.000000000000000e-01 2.000000000000000e+00 1.000000000000000e+00
1.000000000000000e+00 2.000000000000000e+00 5.000000000000000e-01
1.000000000000000e+00 2.000000000000000e+00 1.000000000000000e+00
7.500000000000000e-01 1.750000000000000e+00 1.000000000000000e+00
7.500000000000000e-01 2.250000000000000e+00 1.000000000000000e+00
1.000000000000000e+00 2.250000000000000e+00 7.500000000000000e-01
1.000000000000000e+00 1.750000000000000e+00 7.500000000000000e-01
7.500000000000000e-01 2.000000000000000e+00 7.500000000000000e-01
[...]
  <PointData>
        <DataArray type="Float64" Name="displacement" NumberOfComponents="3" format="ascii">
9.361658302051223e-01 -2.751978303310153e-03 -2.785936187129876e-03
9.560362218612385e-01 -5.272258948372944e-03 -5.662106951855029e-03
9.655828179182078e-01 4.534117674622470e-03 -5.780300122514064e-03
9.454383301840914e-01 2.788942932922705e-03 -2.929615660034490e-03
9.546362421445374e-01 -3.002667040674779e-03 2.822900816742348e-03
9.750508246129405e-01 -5.442036856973475e-03 4.118269768455663e-03
9.844403045510228e-01 4.568825866325373e-03 4.101453741871422e-03
9.637595974662501e-01 2.965702411062247e-03 2.892651030422009e-03
9.560362218612385e-01 -5.272258948372944e-03 -5.662106951855029e-03
9.759755398847718e-01 1.155724553776381e-02 1.092086097281175e-02
9.859707751171485e-01 -1.323289333316253e-02 1.112027624412229e-02
9.655828179182078e-01 4.534117674622470e-03 -5.780300122514064e-03
9.750508246129405e-01 -5.442036856973475e-03 4.118269768455663e-03
9.958721072034291e-01 1.213146279869233e-02 -1.444258324864157e-02
1.005679471384646e+00 -1.414790979901369e-02 -1.498265277317620e-02
9.844403045510228e-01 4.568825866325373e-03 4.101453741871422e-03
9.759755398847718e-01 1.155724553776381e-02 1.092086097281175e-02
1.097383868196657e+00 2.201074198565168e-03 -9.572069280864168e-03
1.113702282689965e+00 -2.622933383086801e-02 -9.281206859838024e-03
9.859707751171485e-01 -1.323289333316253e-02 1.112027624412229e-02
9.958721072034291e-01 1.213146279869233e-02 -1.444258324864157e-02
1.129755433448600e+00 2.858948130460832e-03 -3.855590578639762e-02
1.145555826606135e+00 -2.703719983630190e-02 -3.899629721476719e-02
1.005679471384646e+00 -1.414790979901369e-02 -1.498265277317620e-02
1.456958950637163e+00 -5.277815636966545e-03 -6.413130300968735e-03
1.406867640568568e+00 9.835620315977549e-04 -2.832340651570134e-03
1.388926488847673e+00 6.781090572195725e-04 1.355510320593389e-03
1.401804099439370e+00 1.203177175877164e-02 9.934359199291164e-04
1.396678610633052e+00 -2.639240851638245e-03 -2.069683650058674e-03
1.378321972273172e+00 1.742968414799355e-03 1.901570765992832e-03
1.402180075200681e+00 7.264968681628525e-04 -8.139093891211741e-04
1.423652211806385e+00 -6.002957679836990e-04 -6.181789141253475e-03
1.398288866826447e+00 2.625615657723634e-03 5.723564526545427e-05
1.389457812092538e+00 3.004483846790438e-03 1.345100376420241e-03
1.406867640568568e+00 9.835620315977549e-04 -2.832340651570134e-03
1.432313487238555e+00 -5.481200630526466e-03 -6.099878196880883e-03
1.388926488847673e+00 6.781090572195725e-04 1.355510320593389e-03
1.390569638965421e+00 6.468548017344599e-04 1.257561844165712e-02
1.385263038126965e+00 -9.628407558513788e-04 -2.165514735295557e-03
1.390346618808415e+00 -1.099928191340375e-03 1.291670019481200e-03
1.378321972273172e+00 1.742968414799355e-03 1.901570765992832e-03
1.392909077888538e+00 2.248283906745953e-03 1.327898101000148e-03
1.405788875499532e+00 -5.118796262794144e-03 -3.984210179447316e-04
1.383650289609933e+00 7.371206340501109e-04 3.844782621463137e-03
1.432313487238555e+00 -5.481200630526466e-03 -6.099878196880883e-03
1.480856363569754e+00 2.670557099979361e-04 -3.658422075984186e-03
1.388926488847673e+00 6.781090572195725e-04 1.355510320593389e-03
1.423686876357191e+00 -1.177134626845372e-02 4.156125808821683e-04
1.418924158864564e+00 3.075377148565050e-03 -2.361321397324732e-03
1.413837244176955e+00 -4.788439903073348e-04 -5.996722307275498e-04
1.390346618808415e+00 -1.099928191340375e-03 1.291670019481200e-03
1.421482458325813e+00 -4.033965308623500e-03 -1.588664988722768e-03
1.446086677820876e+00 -1.245775634442797e-03 -5.291955600575191e-03
1.400922251437880e+00 -1.723145669061137e-03 1.090980381784483e-03
1.480856363569754e+00 2.670557099979361e-04 -3.658422075984186e-03
1.456958950637163e+00 -5.277815636966545e-03 -6.413130300968735e-03
1.388926488847673e+00 6.781090572195725e-04 1.355510320593389e-03
1.434349072742861e+00 6.837576054392822e-05 -1.203417927856180e-02
1.429762371456954e+00 -1.254681743703488e-03 3.037201451430304e-03
1.402180075200681e+00 7.264968681628525e-04 -8.139093891211741e-04
1.413837244176955e+00 -4.788439903073348e-04 -5.996722307275498e-04
1.451038101084270e+00 -2.967875323415326e-03 -3.068671293218693e-03
1.438917609954745e+00 -6.594771408315299e-04 -4.357123744691350e-03
1.406579301659310e+00 4.830753977139384e-04 -1.280287586122077e-03
1.456958950637163e+00 -5.277815636966545e-03 -6.413130300968735e-03
1.486056326386223e+00 5.024178593131712e-03 -3.130793060850019e-02
1.401804099439370e+00 1.203177175877164e-02 9.934359199291164e-04
1.434349072742861e+00 6.837576054392822e-05 -1.203417927856180e-02
1.471209078477241e+00 -4.900823916285920e-03 -1.117699433650660e-02
1.441806320950966e+00 1.002267277677619e-02 -1.552338214081071e-02
1.423652211806385e+00 -6.002957679836990e-04 -6.181789141253475e-03
1.438917609954745e+00 -6.594771408315299e-04 -4.357123744691350e-03
1.457808609716924e+00 3.198701714122397e-03 -2.297645353061244e-02
1.413670082113779e+00 6.812537180210559e-03 -6.055511878010449e-03
1.406867640568568e+00 9.835620315977549e-04 -2.832340651570134e-03
1.430613634627740e+00 3.873286978371977e-03 -4.597129470752429e-03
1.390569638965421e+00 6.468548017344599e-04 1.257561844165712e-02
1.401804099439370e+00 1.203177175877164e-02 9.934359199291164e-04
1.418506977091166e+00 1.549874205955437e-03 -3.663337467502950e-03
1.410621974548723e+00 3.561775925440764e-03 6.049269581865843e-03
1.392909077888538e+00 2.248283906745953e-03 1.327898101000148e-03
1.398288866826447e+00 2.625615657723634e-03 5.723564526545427e-05
1.416254743927835e+00 9.917590925752199e-03 -2.705108670863756e-04
1.389846102438088e+00 6.975652800012355e-03 7.519918883669878e-03
1.432313487238555e+00 -5.481200630526466e-03 -6.099878196880883e-03
1.458880643228078e+00 -2.177335008621196e-02 -4.090517068029850e-03
1.423686876357191e+00 -1.177134626845372e-02 4.156125808821683e-04
1.390569638965421e+00 6.468548017344599e-04 1.257561844165712e-02
1.445299268181155e+00 -8.736582299130597e-03 -7.125601042662846e-03
1.440058894564478e+00 -1.829684931692673e-02 -6.843807757808241e-04
1.421482458325813e+00 -4.033965308623500e-03 -1.588664988722768e-03
1.405788875499532e+00 -5.118796262794144e-03 -3.984210179447316e-04
1.423620473176457e+00 -1.122738677947435e-02 5.997567230818849e-03
1.401856349341306e+00 -6.099671054792975e-03 7.288742387854858e-03
1.480856363569754e+00 2.670557099979361e-04 -3.658422075984186e-03
1.512241300527309e+00 -2.314526498073167e-02 -3.203567049302432e-02
1.434349072742861e+00 6.837576054392822e-05 -1.203417927856180e-02
1.423686876357191e+00 -1.177134626845372e-02 4.156125808821683e-04
1.496294585697293e+00 -3.188393835741073e-03 -8.615016038809471e-03
1.469964389962901e+00 -1.175296203166366e-02 -2.329934229795835e-02
1.451038101084270e+00 -2.967875323415326e-03 -3.068671293218693e-03
1.446086677820876e+00 -1.245775634442797e-03 -5.291955600575191e-03
1.464768456881780e+00 -1.877599723496900e-02 -1.599682521325048e-02
1.425300724046780e+00 -6.512695673115762e-03 -6.400489015139892e-03
1.486056326386223e+00 5.024178593131712e-03 -3.130793060850019e-02
1.430613634627740e+00 3.873286978371977e-03 -4.597129470752429e-03
1.401804099439370e+00 1.203177175877164e-02 9.934359199291164e-04
1.479859569056323e+00 -9.536335229698227e-03 -1.906981768481663e-02
1.466247114025592e+00 5.575106175975584e-03 -1.867684491804075e-02
1.416254743927835e+00 9.917590925752199e-03 -2.705108670863756e-04
1.441806320950966e+00 1.002267277677619e-02 -1.552338214081071e-02
1.485809286670073e+00 -2.325054427966175e-03 -2.541107240594862e-02
1.457338568122395e+00 -2.690990015912006e-03 -1.185002418085539e-02
1.436377855252446e+00 3.367515530323733e-03 -8.362215914272350e-03
1.430613634627740e+00 3.873286978371977e-03 -4.597129470752429e-03
1.458880643228078e+00 -2.177335008621196e-02 -4.090517068029850e-03
1.390569638965421e+00 6.468548017344599e-04 1.257561844165712e-02
1.479859569056323e+00 -9.536335229698227e-03 -1.906981768481663e-02
1.453385784131784e+00 -9.290468194401538e-03 -3.530461007512583e-03
1.423620473176457e+00 -1.122738677947435e-02 5.997567230818849e-03
1.410621974548723e+00 3.561775925440764e-03 6.049269581865843e-03
1.457338568122395e+00 -2.690990015912006e-03 -1.185002418085539e-02
1.471739065577271e+00 -1.592530480380516e-02 -1.168513305882488e-02
1.430118786865338e+00 -4.125723924992086e-03 -7.334232959164670e-04
1.458880643228078e+00 -2.177335008621196e-02 -4.090517068029850e-03
1.512241300527309e+00 -2.314526498073167e-02 -3.203567049302432e-02
1.423686876357191e+00 -1.177134626845372e-02 4.156125808821683e-04
1.479859569056323e+00 -9.536335229698227e-03 -1.906981768481663e-02
1.491406132717229e+00 -2.397045975392018e-02 -1.885087948376369e-02
1.464768456881780e+00 -1.877599723496900e-02 -1.599682521325048e-02
1.440058894564478e+00 -1.829684931692673e-02 -6.843807757808241e-04
1.471739065577271e+00 -1.592530480380516e-02 -1.168513305882488e-02
1.499580285939932e+00 -1.635637137129128e-02 -2.564049917541744e-02
1.448741881206446e+00 -1.188976893309415e-02 -8.577658531502252e-03
1.512241300527309e+00 -2.314526498073167e-02 -3.203567049302432e-02
1.486056326386223e+00 5.024178593131712e-03 -3.130793060850019e-02
1.434349072742861e+00 6.837576054392822e-05 -1.203417927856180e-02
1.479859569056323e+00 -9.536335229698227e-03 -1.906981768481663e-02
1.503709764295364e+00 -9.465413149288058e-03 -3.324627464478960e-02
1.457808609716924e+00 3.198701714122397e-03 -2.297645353061244e-02
1.469964389962901e+00 -1.175296203166366e-02 -2.329934229795835e-02
1.499580285939932e+00 -1.635637137129128e-02 -2.564049917541744e-02
1.485809286670073e+00 -2.325054427966175e-03 -2.541107240594862e-02
1.454847862729585e+00 -4.341475274832443e-03 -1.630519620011676e-02
1.388926488847673e+00 6.781090572195725e-04 1.355510320593389e-03
1.401804099439370e+00 1.203177175877164e-02 9.934359199291164e-04
1.434349072742861e+00 6.837576054392822e-05 -1.203417927856180e-02
1.456958950637163e+00 -5.277815636966545e-03 -6.413130300968735e-03
1.389457812092538e+00 3.004483846790438e-03 1.345100376420241e-03
1.413670082113779e+00 6.812537180210559e-03 -6.055511878010449e-03
1.406579301659310e+00 4.830753977139384e-04 -1.280287586122077e-03
1.402180075200681e+00 7.264968681628525e-04 -8.139093891211741e-04
1.423652211806385e+00 -6.002957679836990e-04 -6.181789141253475e-03
1.438917609954745e+00 -6.594771408315299e-04 -4.357123744691350e-03
1.388926488847673e+00 6.781090572195725e-04 1.355510320593389e-03
1.390569638965421e+00 6.468548017344599e-04 1.257561844165712e-02
1.401804099439370e+00 1.203177175877164e-02 9.934359199291164e-04
1.406867640568568e+00 9.835620315977549e-04 -2.832340651570134e-03
1.383650289609933e+00 7.371206340501109e-04 3.844782621463137e-03
1.389846102438088e+00 6.975652800012355e-03 7.519918883669878e-03
1.389457812092538e+00 3.004483846790438e-03 1.345100376420241e-03
1.378321972273172e+00 1.742968414799355e-03 1.901570765992832e-03
1.392909077888538e+00 2.248283906745953e-03 1.327898101000148e-03
1.398288866826447e+00 2.625615657723634e-03 5.723564526545427e-05
1.388926488847673e+00 6.781090572195725e-04 1.355510320593389e-03
1.423686876357191e+00 -1.177134626845372e-02 4.156125808821683e-04
1.390569638965421e+00 6.468548017344599e-04 1.257561844165712e-02
1.432313487238555e+00 -5.481200630526466e-03 -6.099878196880883e-03
1.400922251437880e+00 -1.723145669061137e-03 1.090980381784483e-03
1.401856349341306e+00 -6.099671054792975e-03 7.288742387854858e-03
1.383650289609933e+00 7.371206340501109e-04 3.844782621463137e-03
1.390346618808415e+00 -1.099928191340375e-03 1.291670019481200e-03
1.421482458325813e+00 -4.033965308623500e-03 -1.588664988722768e-03
1.405788875499532e+00 -5.118796262794144e-03 -3.984210179447316e-04
1.388926488847673e+00 6.781090572195725e-04 1.355510320593389e-03
1.434349072742861e+00 6.837576054392822e-05 -1.203417927856180e-02
1.423686876357191e+00 -1.177134626845372e-02 4.156125808821683e-04
1.480856363569754e+00 2.670557099979361e-04 -3.658422075984186e-03
1.406579301659310e+00 4.830753977139384e-04 -1.280287586122077e-03
1.425300724046780e+00 -6.512695673115762e-03 -6.400489015139892e-03
1.400922251437880e+00 -1.723145669061137e-03 1.090980381784483e-03
1.413837244176955e+00 -4.788439903073348e-04 -5.996722307275498e-04
1.451038101084270e+00 -2.967875323415326e-03 -3.068671293218693e-03
1.446086677820876e+00 -1.245775634442797e-03 -5.291955600575191e-03
1.479859569056323e+00 -9.536335229698227e-03 -1.906981768481663e-02
1.434349072742861e+00 6.837576054392822e-05 -1.203417927856180e-02
1.401804099439370e+00 1.203177175877164e-02 9.934359199291164e-04
1.486056326386223e+00 5.024178593131712e-03 -3.130793060850019e-02
1.454847862729585e+00 -4.341475274832443e-03 -1.630519620011676e-02
1.413670082113779e+00 6.812537180210559e-03 -6.055511878010449e-03
1.436377855252446e+00 3.367515530323733e-03 -8.362215914272350e-03
1.485809286670073e+00 -2.325054427966175e-03 -2.541107240594862e-02
1.457808609716924e+00 3.198701714122397e-03 -2.297645353061244e-02
1.441806320950966e+00 1.002267277677619e-02 -1.552338214081071e-02
1.479859569056323e+00 -9.536335229698227e-03 -1.906981768481663e-02
1.401804099439370e+00 1.203177175877164e-02 9.934359199291164e-04
1.390569638965421e+00 6.468548017344599e-04 1.257561844165712e-02
1.430613634627740e+00 3.873286978371977e-03 -4.597129470752429e-03
1.436377855252446e+00 3.367515530323733e-03 -8.362215914272350e-03
1.389846102438088e+00 6.975652800012355e-03 7.519918883669878e-03
1.430118786865338e+00 -4.125723924992086e-03 -7.334232959164670e-04
1.457338568122395e+00 -2.690990015912006e-03 -1.185002418085539e-02
1.416254743927835e+00 9.917590925752199e-03 -2.705108670863756e-04
1.410621974548723e+00 3.561775925440764e-03 6.049269581865843e-03
1.479859569056323e+00 -9.536335229698227e-03 -1.906981768481663e-02
1.390569638965421e+00 6.468548017344599e-04 1.257561844165712e-02
1.423686876357191e+00 -1.177134626845372e-02 4.156125808821683e-04
1.458880643228078e+00 -2.177335008621196e-02 -4.090517068029850e-03
1.430118786865338e+00 -4.125723924992086e-03 -7.334232959164670e-04
1.401856349341306e+00 -6.099671054792975e-03 7.288742387854858e-03
1.448741881206446e+00 -1.188976893309415e-02 -8.577658531502252e-03
1.471739065577271e+00 -1.592530480380516e-02 -1.168513305882488e-02
1.423620473176457e+00 -1.122738677947435e-02 5.997567230818849e-03
1.440058894564478e+00 -1.829684931692673e-02 -6.843807757808241e-04
1.479859569056323e+00 -9.536335229698227e-03 -1.906981768481663e-02
1.423686876357191e+00 -1.177134626845372e-02 4.156125808821683e-04
1.434349072742861e+00 6.837576054392822e-05 -1.203417927856180e-02
1.512241300527309e+00 -2.314526498073167e-02 -3.203567049302432e-02
1.448741881206446e+00 -1.188976893309415e-02 -8.577658531502252e-03
1.425300724046780e+00 -6.512695673115762e-03 -6.400489015139892e-03
1.454847862729585e+00 -4.341475274832443e-03 -1.630519620011676e-02
1.499580285939932e+00 -1.635637137129128e-02 -2.564049917541744e-02
1.464768456881780e+00 -1.877599723496900e-02 -1.599682521325048e-02
1.469964389962901e+00 -1.175296203166366e-02 -2.329934229795835e-02
1.388926488847673e+00 6.781090572195725e-04 1.355510320593389e-03
1.434349072742861e+00 6.837576054392822e-05 -1.203417927856180e-02
1.401804099439370e+00 1.203177175877164e-02 9.934359199291164e-04
1.403243164415973e+00 5.521705138858589e-04 1.103682796972518e-03
1.406579301659310e+00 4.830753977139384e-04 -1.280287586122077e-03
1.413670082113779e+00 6.812537180210559e-03 -6.055511878010449e-03
1.389457812092538e+00 3.004483846790438e-03 1.345100376420241e-03
1.396052447664934e+00 6.158140350999260e-04 1.230767873687843e-03
1.415319433430810e+00 3.507635270284121e-04 -4.978027135090777e-03
1.397757326576333e+00 5.990836257395733e-03 1.149165644955949e-03
1.388926488847673e+00 6.781090572195725e-04 1.355510320593389e-03
1.401804099439370e+00 1.203177175877164e-02 9.934359199291164e-04
1.390569638965421e+00 6.468548017344599e-04 1.257561844165712e-02
1.403243164415973e+00 5.521705138858589e-04 1.103682796972518e-03
1.389457812092538e+00 3.004483846790438e-03 1.345100376420241e-03
1.389846102438088e+00 6.975652800012355e-03 7.519918883669878e-03
1.383650289609933e+00 7.371206340501109e-04 3.844782621463137e-03
1.396052447664934e+00 6.158140350999260e-04 1.230767873687843e-03
1.397757326576333e+00 5.990836257395733e-03 1.149165644955949e-03
1.391794318785593e+00 6.514350960951069e-04 6.630592524150384e-03
1.388926488847673e+00 6.781090572195725e-04 1.355510320593389e-03
1.390569638965421e+00 6.468548017344599e-04 1.257561844165712e-02
1.423686876357191e+00 -1.177134626845372e-02 4.156125808821683e-04
1.403243164415973e+00 5.521705138858589e-04 1.103682796972518e-03
1.383650289609933e+00 7.371206340501109e-04 3.844782621463137e-03
1.401856349341306e+00 -6.099671054792975e-03 7.288742387854858e-03
1.400922251437880e+00 -1.723145669061137e-03 1.090980381784483e-03
1.396052447664934e+00 6.158140350999260e-04 1.230767873687843e-03
1.391794318785593e+00 6.514350960951069e-04 6.630592524150384e-03
1.409519979302240e+00 -5.167134113413358e-03 8.485943377768599e-04
1.388926488847673e+00 6.781090572195725e-04 1.355510320593389e-03
1.423686876357191e+00 -1.177134626845372e-02 4.156125808821683e-04
1.434349072742861e+00 6.837576054392822e-05 -1.203417927856180e-02
1.403243164415973e+00 5.521705138858589e-04 1.103682796972518e-03
1.400922251437880e+00 -1.723145669061137e-03 1.090980381784483e-03
1.425300724046780e+00 -6.512695673115762e-03 -6.400489015139892e-03
1.406579301659310e+00 4.830753977139384e-04 -1.280287586122077e-03
1.396052447664934e+00 6.158140350999260e-04 1.230767873687843e-03
1.409519979302240e+00 -5.167134113413358e-03 8.485943377768599e-04
1.415319433430810e+00 3.507635270284121e-04 -4.978027135090777e-03
1.479859569056323e+00 -9.536335229698227e-03 -1.906981768481663e-02
1.401804099439370e+00 1.203177175877164e-02 9.934359199291164e-04
1.434349072742861e+00 6.837576054392822e-05 -1.203417927856180e-02
1.403243164415973e+00 5.521705138858589e-04 1.103682796972518e-03
1.436377855252446e+00 3.367515530323733e-03 -8.362215914272350e-03
1.413670082113779e+00 6.812537180210559e-03 -6.055511878010449e-03
1.454847862729585e+00 -4.341475274832443e-03 -1.630519620011676e-02
1.441834914116853e+00 -4.275603410672288e-03 -8.550660890618735e-03
1.397757326576333e+00 5.990836257395733e-03 1.149165644955949e-03
1.415319433430810e+00 3.507635270284121e-04 -4.978027135090777e-03
1.479859569056323e+00 -9.536335229698227e-03 -1.906981768481663e-02
1.390569638965421e+00 6.468548017344599e-04 1.257561844165712e-02
1.401804099439370e+00 1.203177175877164e-02 9.934359199291164e-04
1.403243164415973e+00 5.521705138858589e-04 1.103682796972518e-03
1.430118786865338e+00 -4.125723924992086e-03 -7.334232959164670e-04
1.389846102438088e+00 6.975652800012355e-03 7.519918883669878e-03
1.436377855252446e+00 3.367515530323733e-03 -8.362215914272350e-03
1.441834914116853e+00 -4.275603410672288e-03 -8.550660890618735e-03
1.391794318785593e+00 6.514350960951069e-04 6.630592524150384e-03
1.397757326576333e+00 5.990836257395733e-03 1.149165644955949e-03
1.479859569056323e+00 -9.536335229698227e-03 -1.906981768481663e-02
1.423686876357191e+00 -1.177134626845372e-02 4.156125808821683e-04
1.390569638965421e+00 6.468548017344599e-04 1.257561844165712e-02
1.403243164415973e+00 5.521705138858589e-04 1.103682796972518e-03
1.448741881206446e+00 -1.188976893309415e-02 -8.577658531502252e-03
1.401856349341306e+00 -6.099671054792975e-03 7.288742387854858e-03
1.430118786865338e+00 -4.125723924992086e-03 -7.334232959164670e-04
1.441834914116853e+00 -4.275603410672288e-03 -8.550660890618735e-03
1.409519979302240e+00 -5.167134113413358e-03 8.485943377768599e-04
1.391794318785593e+00 6.514350960951069e-04 6.630592524150384e-03
1.479859569056323e+00 -9.536335229698227e-03 -1.906981768481663e-02
1.434349072742861e+00 6.837576054392822e-05 -1.203417927856180e-02