<?xml version="1.0" ?> 
<!-- 
# vtk DataFile Version 3.0
-->
<VTKFile type="UnstructuredGrid" version="0.1" compressor="vtkZLibDataCompressor" byte_order="LittleEndian">
  <UnstructuredGrid>
    <FieldData>
      <DataArray type="Float64" Name="TIME" NumberOfTuples="1" format="ascii">
9.999999999999999e-01 
      </DataArray>
    </FieldData>

    <Piece NumberOfPoints="1988" NumberOfCells="497" >
      <Points>
        <DataArray type="Float64" NumberOfComponents="3" format="ascii">
3.125000000000000e-02 0.000000000000000e+00 0.000000000000000e+00
3.125000000000001e-02 3.124999999999979e-02 0.000000000000000e+00
0.000000000000000e+00 3.125000000000000e-02 0.000000000000000e+00
0.000000000000000e+00 0.000000000000000e+00 0.000000000000000e+00
6.250000000000000e-02 0.000000000000000e+00 0.000000000000000e+00
6.250000000000006e-02 3.124999999999979e-02 0.000000000000000e+00
3.125000000000001e-02 3.124999999999979e-02 0.000000000000000e+00
3.125000000000000e-02 0.000000000000000e+00 0.000000000000000e+00
9.375000000000000e-02 0.000000000000000e+00 0.000000000000000e+00
9.375000000000001e-02 3.124999999999979e-02 0.000000000000000e+00
6.250000000000006e-02 3.124999999999979e-02 0.000000000000000e+00
6.250000000000000e-02 0.000000000000000e+00 0.000000000000000e+00
1.250000000000000e-01 0.000000000000000e+00 0.000000000000000e+00
1.250000000000000e-01 3.124999999999995e-02 0.000000000000000e+00
9.375000000000001e-02 3.124999999999979e-02 0.000000000000000e+00
9.375000000000000e-02 0.000000000000000e+00 0.000000000000000e+00
1.562500000000000e-01 0.000000000000000e+00 0.000000000000000e+00
1.562500000000001e-01 3.124999999999996e-02 0.000000000000000e+00
1.250000000000000e-01 3.124999999999995e-02 0.000000000000000e+00
1.250000000000000e-01 0.000000000000000e+00 0.000000000000000e+00
1.875000000000000e-01 0.000000000000000e+00 0.000000000000000e+00
1.875000000000000e-01 3.124999999999979e-02 0.000000000000000e+00
1.562500000000001e-01 3.124999999999996e-02 0.000000000000000e+00
1.562500000000000e-01 0.000000000000000e+00 0.000000000000000e+00
2.187500000000000e-01 0.000000000000000e+00 0.000000000000000e+00
2.187500000000000e-01 3.124999999999979e-02 0.000000000000000e+00
1.875000000000000e-01 3.124999999999979e-02 0.000000000000000e+00
1.875000000000000e-01 0.000000000000000e+00 0.000000000000000e+00
2.500000000000000e-01 0.000000000000000e+00 0.000000000000000e+00
2.500000000000000e-01 3.124999999999979e-02 0.000000000000000e+00
2.187500000000000e-01 3.124999999999979e-02 0.000000000000000e+00
2.187500000000000e-01 0.000000000000000e+00 0.000000000000000e+00
2.812500000000000e-01 0.000000000000000e+00 0.000000000000000e+00
2.812499999999999e-01 3.124999999999979e-02 0.000000000000000e+00
2.500000000000000e-01 3.124999999999979e-02 0.000000000000000e+00
2.500000000000000e-01 0.000000000000000e+00 0.000000000000000e+00
3.125000000000000e-01 0.000000000000000e+00 0.000000000000000e+00
3.124999999999999e-01 3.124999999999979e-02 0.000000000000000e+00
2.812499999999999e-01 3.124999999999979e-02 0.000000000000000e+00
2.812500000000000e-01 0.000000000000000e+00 0.000000000000000e+00
3.437500000000000e-01 0.000000000000000e+00 0.000000000000000e+00
3.437500000000000e-01 3.124999999999979e-02 0.000000000000000e+00
3.124999999999999e-01 3.124999999999979e-02 0.000000000000000e+00
3.125000000000000e-01 0.000000000000000e+00 0.000000000000000e+00
3.750000000000000e-01 0.000000000000000e+00 0.000000000000000e+00
3.750000000000000e-01 3.124999999999979e-02 0.000000000000000e+00
3.437500000000000e-01 3.124999999999979e-02 0.000000000000000e+00
3.437500000000000e-01 0.000000000000000e+00 0.000000000000000e+00
4.062500000000000e-01 0.000000000000000e+00 0.000000000000000e+00
4.062499999999998e-01 3.124999999999979e-02 0.000000000000000e+00
3.750000000000000e-01 3.124999999999979e-02 0.000000000000000e+00
3.750000000000000e-01 0.000000000000000e+00 0.000000000000000e+00
4.375000000000000e-01 0.000000000000000e+00 0.000000000000000e+00
4.374999999999999e-01 3.124999999999979e-02 0.000000000000000e+00
4.062499999999998e-01 3.124999999999979e-02 0.000000000000000e+00
4.062500000000000e-01 0.000000000000000e+00 0.000000000000000e+00
4.687500000000000e-01 0.000000000000000e+00 0.000000000000000e+00
4.687499999999999e-01 3.124999999999996e-02 0.000000000000000e+00
4.374999999999999e-01 3.124999999999979e-02 0.000000000000000e+00
4.375000000000000e-01 0.000000000000000e+00 0.000000000000000e+00
5.000000000000000e-01 0.000000000000000e+00 0.000000000000000e+00
4.999999999999998e-01 3.124999999999995e-02 0.000000000000000e+00
4.687499999999999e-01 3.124999999999996e-02 0.000000000000000e+00
4.687500000000000e-01 0.000000000000000e+00 0.000000000000000e+00
5.312500000000000e-01 0.000000000000000e+00 0.000000000000000e+00
5.312499999999999e-01 3.124999999999979e-02 0.000000000000000e+00
4.999999999999998e-01 3.124999999999995e-02 0.000000000000000e+00
5.000000000000000e-01 0.000000000000000e+00 0.000000000000000e+00
5.625000000000000e-01 0.000000000000000e+00 0.000000000000000e+00
5.624999999999998e-01 3.124999999999995e-02 0.000000000000000e+00
5.312499999999999e-01 3.124999999999979e-02 0.000000000000000e+00
5.312500000000000e-01 0.000000000000000e+00 0.000000000000000e+00
5.937500000000000e-01 0.000000000000000e+00 0.000000000000000e+00
5.937500000000000e-01 3.124999999999995e-02 0.000000000000000e+00
5.624999999999998e-01 3.124999999999995e-02 0.000000000000000e+00
5.625000000000000e-01 0.000000000000000e+00 0.000000000000000e+00
6.250000000000000e-01 0.000000000000000e+00 0.000000000000000e+00
6.249999999999996e-01 3.124999999999979e-02 0.000000000000000e+00
5.937500000000000e-01 3.124999999999995e-02 0.000000000000000e+00
5.937500000000000e-01 0.000000000000000e+00 0.000000000000000e+00
6.562500000000000e-01 0.000000000000000e+00 0.000000000000000e+00
6.562499999999998e-01 3.124999999999947e-02 0.000000000000000e+00
6.249999999999996e-01 3.124999999999979e-02 0.000000000000000e+00
6.250000000000000e-01 0.000000000000000e+00 0.000000000000000e+00
6.875000000000000e-01 0.000000000000000e+00 0.000000000000000e+00
6.874999999999999e-01 3.124999999999963e-02 0.000000000000000e+00
6.562499999999998e-01 3.124999999999947e-02 0.000000000000000e+00
6.562500000000000e-01 0.000000000000000e+00 0.000000000000000e+00
7.187500000000000e-01 0.000000000000000e+00 0.000000000000000e+00
7.187499999999994e-01 3.124999999999979e-02 0.000000000000000e+00
6.874999999999999e-01 3.124999999999963e-02 0.000000000000000e+00
6.875000000000000e-01 0.000000000000000e+00 0.000000000000000e+00
7.500000000000000e-01 0.000000000000000e+00 0.000000000000000e+00
7.499999999999998e-01 3.124999999999979e-02 0.000000000000000e+00
7.187499999999994e-01 3.124999999999979e-02 0.000000000000000e+00
7.187500000000000e-01 0.000000000000000e+00 0.000000000000000e+00
7.812500000000000e-01 0.000000000000000e+00 0.000000000000000e+00
7.812500000000001e-01 3.124999999999979e-02 0.000000000000000e+00
7.499999999999998e-01 3.124999999999979e-02 0.000000000000000e+00
7.500000000000000e-01 0.000000000000000e+00 0.000000000000000e+00
8.125000000000000e-01 0.000000000000000e+00 0.000000000000000e+00
8.124999999999997e-01 3.125000000000010e-02 0.000000000000000e+00
7.812500000000001e-01 3.124999999999979e-02 0.000000000000000e+00
7.812500000000000e-01 0.000000000000000e+00 0.000000000000000e+00
8.437500000000000e-01 0.000000000000000e+00 0.000000000000000e+00
8.437499999999999e-01 3.124999999999979e-02 0.000000000000000e+00
8.124999999999997e-01 3.125000000000010e-02 0.000000000000000e+00
8.125000000000000e-01 0.000000000000000e+00 0.000000000000000e+00
8.750000000000000e-01 0.000000000000000e+00 0.000000000000000e+00
8.749999999999999e-01 3.124999999999979e-02 0.000000000000000e+00
8.437499999999999e-01 3.124999999999979e-02 0.000000000000000e+00
8.437500000000000e-01 0.000000000000000e+00 0.000000000000000e+00
9.062500000000000e-01 0.000000000000000e+00 0.000000000000000e+00
9.062499999999998e-01 3.124999999999979e-02 0.000000000000000e+00
8.749999999999999e-01 3.124999999999979e-02 0.000000000000000e+00
8.750000000000000e-01 0.000000000000000e+00 0.000000000000000e+00
9.375000000000000e-01 0.000000000000000e+00 0.000000000000000e+00
9.374999999999999e-01 3.125000000000010e-02 0.000000000000000e+00
9.062499999999998e-01 3.124999999999979e-02 0.000000000000000e+00
9.062500000000000e-01 0.000000000000000e+00 0.000000000000000e+00
9.687500000000000e-01 0.000000000000000e+00 0.000000000000000e+00
9.687500000000001e-01 3.124999999999995e-02 0.000000000000000e+00
9.374999999999999e-01 3.125000000000010e-02 0.000000000000000e+00
9.375000000000000e-01 0.000000000000000e+00 0.000000000000000e+00
1.000000000000000e+00 0.000000000000000e+00 0.000000000000000e+00
1.000000000000000e+00 3.125000000000000e-02 0.000000000000000e+00
9.687500000000001e-01 3.124999999999995e-02 0.000000000000000e+00
9.687500000000000e-01 0.000000000000000e+00 0.000000000000000e+00
3.125000000000001e-02 3.124999999999979e-02 0.000000000000000e+00
3.125000000000001e-02 6.249999999999970e-02 0.000000000000000e+00
0.000000000000000e+00 6.250000000000000e-02 0.000000000000000e+00
0.000000000000000e+00 3.125000000000000e-02 0.000000000000000e+00
6.250000000000006e-02 3.124999999999979e-02 0.000000000000000e+00
6.250000000000006e-02 6.249999999999971e-02 0.000000000000000e+00
3.125000000000001e-02 6.249999999999970e-02 0.000000000000000e+00
3.125000000000001e-02 3.124999999999979e-02 0.000000000000000e+00
9.375000000000001e-02 3.124999999999979e-02 0.000000000000000e+00
9.375000000000001e-02 6.249999999999971e-02 0.000000000000000e+00
6.250000000000006e-02 6.249999999999971e-02 0.000000000000000e+00
6.250000000000006e-02 3.124999999999979e-02 0.000000000000000e+00
1.250000000000000e-01 3.124999999999995e-02 0.000000000000000e+00
1.250000000000001e-01 6.249999999999971e-02 0.000000000000000e+00
9.375000000000001e-02 6.249999999999971e-02 0.000000000000000e+00
9.375000000000001e-02 3.124999999999979e-02 0.000000000000000e+00
[...]
  <PointData>
        <DataArray type="Float64" Name="displacement" NumberOfComponents="3" format="ascii">
-5.035438715943402e-06 3.978088382475094e-05 0.000000000000000e+00
-6.625900597639945e-06 3.119203628884296e-05 0.000000000000000e+00
0.000000000000000e+00 0.000000000000000e+00 0.000000000000000e+00
0.000000000000000e+00 0.000000000000000e+00 0.000000000000000e+00
-7.532884119765582e-06 8.441625481183046e-05 0.000000000000000e+00
-8.374636044448108e-06 5.665722151283361e-05 0.000000000000000e+00
-6.625900597639945e-06 3.119203628884296e-05 0.000000000000000e+00
-5.035438715943402e-06 3.978088382475094e-05 0.000000000000000e+00
-9.924830517644322e-06 9.317089387717365e-05 0.000000000000000e+00
-6.986012759255894e-06 6.641021181545478e-05 0.000000000000000e+00
-8.374636044448108e-06 5.665722151283361e-05 0.000000000000000e+00
-7.532884119765582e-06 8.441625481183046e-05 0.000000000000000e+00
-1.304508703324320e-05 7.707038782962502e-05 0.000000000000000e+00
-7.088030674303546e-06 6.033076618931318e-05 0.000000000000000e+00
-6.986012759255894e-06 6.641021181545478e-05 0.000000000000000e+00
-9.924830517644322e-06 9.317089387717365e-05 0.000000000000000e+00
-1.668900299897534e-05 5.621478569501117e-05 0.000000000000000e+00
-9.429493312683623e-06 4.727509862963138e-05 0.000000000000000e+00
-7.088030674303546e-06 6.033076618931318e-05 0.000000000000000e+00
-1.304508703324320e-05 7.707038782962502e-05 0.000000000000000e+00
-2.037230623759324e-05 4.017378278858982e-05 0.000000000000000e+00
-1.262267787158680e-05 3.354363748670500e-05 0.000000000000000e+00
-9.429493312683623e-06 4.727509862963138e-05 0.000000000000000e+00
-1.668900299897534e-05 5.621478569501117e-05 0.000000000000000e+00
-2.378534189655925e-05 2.750105597683594e-05 0.000000000000000e+00
-1.537003933278022e-05 2.013817519160561e-05 0.000000000000000e+00
-1.262267787158680e-05 3.354363748670500e-05 0.000000000000000e+00
-2.037230623759324e-05 4.017378278858982e-05 0.000000000000000e+00
-2.686690306115655e-05 1.309679252121514e-05 0.000000000000000e+00
-1.732070331412964e-05 5.273367449647454e-06 0.000000000000000e+00
-1.537003933278022e-05 2.013817519160561e-05 0.000000000000000e+00
-2.378534189655925e-05 2.750105597683594e-05 0.000000000000000e+00
-2.967276833751208e-05 -5.909041433380420e-06 0.000000000000000e+00
-1.877840632180208e-05 -1.256236298535361e-05 0.000000000000000e+00
-1.732070331412964e-05 5.273367449647454e-06 0.000000000000000e+00
-2.686690306115655e-05 1.309679252121514e-05 0.000000000000000e+00
-3.223405434228153e-05 -2.907964503573190e-05 0.000000000000000e+00
-2.009691544359457e-05 -3.345548790107383e-05 0.000000000000000e+00
-1.877840632180208e-05 -1.256236298535361e-05 0.000000000000000e+00
-2.967276833751208e-05 -5.909041433380420e-06 0.000000000000000e+00
-3.451269485860667e-05 -5.464414947337235e-05 0.000000000000000e+00
-2.136912230522916e-05 -5.660752170122721e-05 0.000000000000000e+00
-2.009691544359457e-05 -3.345548790107383e-05 0.000000000000000e+00
-3.223405434228153e-05 -2.907964503573190e-05 0.000000000000000e+00
-3.643936082951851e-05 -8.140146224392521e-05 0.000000000000000e+00
-2.248744418629535e-05 -8.123119553343984e-05 0.000000000000000e+00
-2.136912230522916e-05 -5.660752170122721e-05 0.000000000000000e+00
-3.451269485860667e-05 -5.464414947337235e-05 0.000000000000000e+00
-3.796109188684185e-05 -1.090932341710952e-04 0.000000000000000e+00
-2.332971128134759e-05 -1.069134919348242e-04 0.000000000000000e+00
-2.248744418629535e-05 -8.123119553343984e-05 0.000000000000000e+00
-3.643936082951851e-05 -8.140146224392521e-05 0.000000000000000e+00
-3.905450277219564e-05 -1.377798174727246e-04 0.000000000000000e+00
-2.385356965740147e-05 -1.334571466398907e-04 0.000000000000000e+00
-2.332971128134759e-05 -1.069134919348242e-04 0.000000000000000e+00
-3.796109188684185e-05 -1.090932341710952e-04 0.000000000000000e+00
-3.971200307568569e-05 -1.672937700697086e-04 0.000000000000000e+00
-2.407159295786088e-05 -1.606302827638535e-04 0.000000000000000e+00
-2.385356965740147e-05 -1.334571466398907e-04 0.000000000000000e+00
-3.905450277219564e-05 -1.377798174727246e-04 0.000000000000000e+00
-3.992693126117178e-05 -1.972066113165489e-04 0.000000000000000e+00
-2.399300851392926e-05 -1.880982619177203e-04 0.000000000000000e+00
-2.407159295786088e-05 -1.606302827638535e-04 0.000000000000000e+00
-3.971200307568569e-05 -1.672937700697086e-04 0.000000000000000e+00
-3.969043574899278e-05 -2.270913028645084e-04 0.000000000000000e+00
-2.360277408457776e-05 -2.155078333045275e-04 0.000000000000000e+00
-2.399300851392926e-05 -1.880982619177203e-04 0.000000000000000e+00
-3.992693126117178e-05 -1.972066113165489e-04 0.000000000000000e+00
-3.899854130768728e-05 -2.567153007880085e-04 0.000000000000000e+00
-2.288837375126552e-05 -2.425549856838148e-04 0.000000000000000e+00
-2.360277408457776e-05 -2.155078333045275e-04 0.000000000000000e+00
-3.969043574899278e-05 -2.270913028645084e-04 0.000000000000000e+00
-3.786333616663247e-05 -2.859287012430177e-04 0.000000000000000e+00
-2.188117813819382e-05 -2.689154794739888e-04 0.000000000000000e+00
-2.288837375126552e-05 -2.425549856838148e-04 0.000000000000000e+00
-3.899854130768728e-05 -2.567153007880085e-04 0.000000000000000e+00
-3.631776397615421e-05 -3.142526359114463e-04 0.000000000000000e+00
-2.065559128520156e-05 -2.940789948463127e-04 0.000000000000000e+00
-2.188117813819382e-05 -2.689154794739888e-04 0.000000000000000e+00
-3.786333616663247e-05 -2.859287012430177e-04 0.000000000000000e+00
-3.440045025414049e-05 -3.405864271489287e-04 0.000000000000000e+00
-1.924334208229881e-05 -3.173224997140453e-04 0.000000000000000e+00
-2.065559128520156e-05 -2.940789948463127e-04 0.000000000000000e+00
-3.631776397615421e-05 -3.142526359114463e-04 0.000000000000000e+00
-3.212225063343604e-05 -3.637362274515365e-04 0.000000000000000e+00
-1.750901112430405e-05 -3.380865343042986e-04 0.000000000000000e+00
-1.924334208229881e-05 -3.173224997140453e-04 0.000000000000000e+00
-3.440045025414049e-05 -3.405864271489287e-04 0.000000000000000e+00
-2.944771342870226e-05 -3.839378451626686e-04 0.000000000000000e+00
-1.515239276133858e-05 -3.566514987000862e-04 0.000000000000000e+00
-1.750901112430405e-05 -3.380865343042986e-04 0.000000000000000e+00
-3.212225063343604e-05 -3.637362274515365e-04 0.000000000000000e+00
-2.633703265485140e-05 -4.041467038526402e-04 0.000000000000000e+00
-1.200246549138350e-05 -3.743712787906533e-04 0.000000000000000e+00
-1.515239276133858e-05 -3.566514987000862e-04 0.000000000000000e+00
-2.944771342870226e-05 -3.839378451626686e-04 0.000000000000000e+00
-2.285528722269576e-05 -4.288435885976595e-04 0.000000000000000e+00
-8.540902539075725e-06 -3.924418823203164e-04 0.000000000000000e+00
-1.200246549138350e-05 -3.743712787906533e-04 0.000000000000000e+00
-2.633703265485140e-05 -4.041467038526402e-04 0.000000000000000e+00
-1.927905745668560e-05 -4.590539156106652e-04 0.000000000000000e+00
-6.253297888025241e-06 -4.089301937868286e-04 0.000000000000000e+00
-8.540902539075725e-06 -3.924418823203164e-04 0.000000000000000e+00
-2.285528722269576e-05 -4.288435885976595e-04 0.000000000000000e+00
-1.608300041781638e-05 -4.853807372562283e-04 0.000000000000000e+00
-7.242934523911136e-06 -4.155114429961325e-04 0.000000000000000e+00
-6.253297888025241e-06 -4.089301937868286e-04 0.000000000000000e+00
-1.927905745668560e-05 -4.590539156106652e-04 0.000000000000000e+00
-1.374267755813691e-05 -4.843327634605986e-04 0.000000000000000e+00
-1.277524416261879e-05 -3.970719747448974e-04 0.000000000000000e+00
-7.242934523911136e-06 -4.155114429961325e-04 0.000000000000000e+00
-1.608300041781638e-05 -4.853807372562283e-04 0.000000000000000e+00
-1.239541817640846e-05 -4.246966062900509e-04 0.000000000000000e+00
-2.105603440943709e-05 -3.376578915054566e-04 0.000000000000000e+00
-1.277524416261879e-05 -3.970719747448974e-04 0.000000000000000e+00
-1.374267755813691e-05 -4.843327634605986e-04 0.000000000000000e+00
-1.137381699048122e-05 -2.886832999541435e-04 0.000000000000000e+00
-2.547634717254121e-05 -2.337952360157204e-04 0.000000000000000e+00
-2.105603440943709e-05 -3.376578915054566e-04 0.000000000000000e+00
-1.239541817640846e-05 -4.246966062900509e-04 0.000000000000000e+00
-8.548488891367307e-06 -1.070578536435105e-04 0.000000000000000e+00
-1.657535671805730e-05 -1.110831647592921e-04 0.000000000000000e+00
-2.547634717254121e-05 -2.337952360157204e-04 0.000000000000000e+00
-1.137381699048122e-05 -2.886832999541435e-04 0.000000000000000e+00
0.000000000000000e+00 0.000000000000000e+00 0.000000000000000e+00
0.000000000000000e+00 0.000000000000000e+00 0.000000000000000e+00
-1.657535671805730e-05 -1.110831647592921e-04 0.000000000000000e+00
-8.548488891367307e-06 -1.070578536435105e-04 0.000000000000000e+00
-6.625900597639945e-06 3.119203628884296e-05 0.000000000000000e+00
-4.977903726996848e-06 2.266529763915750e-05 0.000000000000000e+00
0.000000000000000e+00 0.000000000000000e+00 0.000000000000000e+00
0.000000000000000e+00 0.000000000000000e+00 0.000000000000000e+00
-8.374636044448108e-06 5.665722151283361e-05 0.000000000000000e+00
-6.330048562865161e-06 3.962625479264564e-05 0.000000000000000e+00
-4.977903726996848e-06 2.266529763915750e-05 0.000000000000000e+00
-6.625900597639945e-06 3.119203628884296e-05 0.000000000000000e+00
-6.986012759255894e-06 6.641021181545478e-05 0.000000000000000e+00
-5.491266306082297e-06 4.736766294132781e-05 0.000000000000000e+00
-6.330048562865161e-06 3.962625479264564e-05 0.000000000000000e+00
-8.374636044448108e-06 5.665722151283361e-05 0.000000000000000e+00
-7.088030674303546e-06 6.033076618931318e-05 0.000000000000000e+00
-4.666445163508844e-06 4.550378029611775e-05 0.000000000000000e+00
-5.491266306082297e-06 4.736766294132781e-05 0.000000000000000e+00
-6.986012759255894e-06 6.641021181545478e-05 0.000000000000000e+00
-9.429493312683623e-06 4.727509862963138e-05 0.000000000000000e+00
-5.160962301553707e-06 3.719721250657761e-05 0.000000000000000e+00
-4.666445163508844e-06 4.550378029611775e-05 0.000000000000000e+00
-7.088030674303546e-06 6.033076618931318e-05 0.000000000000000e+00
-1.262267787158680e-05 3.354363748670500e-05 0.000000000000000e+00
-6.590810820810100e-06 2.592741494601639e-05 0.000000000000000e+00
-5.160962301553707e-06 3.719721250657761e-05 0.000000000000000e+00
-9.429493312683623e-06 4.727509862963138e-05 0.000000000000000e+00
-1.537003933278022e-05 2.013817519160561e-05 0.000000000000000e+00
-8.077078551592359e-06 1.314353892223019e-05 0.000000000000000e+00
-6.590810820810100e-06 2.592741494601639e-05 0.000000000000000e+00
-1.262267787158680e-05 3.354363748670500e-05 0.000000000000000e+00
-1.732070331412964e-05 5.273367449647454e-06 0.000000000000000e+00
-9.141438213707410e-06 -1.353763236441602e-06 0.000000000000000e+00
-8.077078551592359e-06 1.314353892223019e-05 0.000000000000000e+00
-1.537003933278022e-05 2.013817519160561e-05 0.000000000000000e+00
-1.877840632180208e-05 -1.256236298535361e-05 0.000000000000000e+00
-9.811150926718947e-06 -1.811134947096605e-05 0.000000000000000e+00
-9.141438213707410e-06 -1.353763236441602e-06 0.000000000000000e+00
-1.732070331412964e-05 5.273367449647454e-06 0.000000000000000e+00
-2.009691544359457e-05 -3.345548790107383e-05 0.000000000000000e+00
-1.030242307096081e-05 -3.722458953511283e-05 0.000000000000000e+00
-9.811150926718947e-06 -1.811134947096605e-05 0.000000000000000e+00
-1.877840632180208e-05 -1.256236298535361e-05 0.000000000000000e+00
-2.136912230522916e-05 -5.660752170122721e-05 0.000000000000000e+00
-1.074488629438755e-05 -5.832398926589596e-05 0.000000000000000e+00
-1.030242307096081e-05 -3.722458953511283e-05 0.000000000000000e+00
-2.009691544359457e-05 -3.345548790107383e-05 0.000000000000000e+00
-2.248744418629535e-05 -8.123119553343984e-05 0.000000000000000e+00
-1.112745635085388e-05 -8.090833592018378e-05 0.000000000000000e+00
-1.074488629438755e-05 -5.832398926589596e-05 0.000000000000000e+00
-2.136912230522916e-05 -5.660752170122721e-05 0.000000000000000e+00
-2.332971128134759e-05 -1.069134919348242e-04 0.000000000000000e+00
-1.138284255207715e-05 -1.045738154142113e-04 0.000000000000000e+00
-1.112745635085388e-05 -8.090833592018378e-05 0.000000000000000e+00
-2.248744418629535e-05 -8.123119553343984e-05 0.000000000000000e+00
-2.385356965740147e-05 -1.334571466398907e-04 0.000000000000000e+00
-1.146657103513967e-05 -1.290222343003423e-04 0.000000000000000e+00
-1.138284255207715e-05 -1.045738154142113e-04 0.000000000000000e+00
-2.332971128134759e-05 -1.069134919348242e-04 0.000000000000000e+00
-2.407159295786088e-05 -1.606302827638535e-04 0.000000000000000e+00
-1.137016470451191e-05 -1.539740444361815e-04 0.000000000000000e+00
-1.146657103513967e-05 -1.290222343003423e-04 0.000000000000000e+00
-2.385356965740147e-05 -1.334571466398907e-04 0.000000000000000e+00
-2.399300851392926e-05 -1.880982619177203e-04 0.000000000000000e+00
-1.109648191740942e-05 -1.791192288127854e-04 0.000000000000000e+00
-1.137016470451191e-05 -1.539740444361815e-04 0.000000000000000e+00
-2.407159295786088e-05 -1.606302827638535e-04 0.000000000000000e+00
-2.360277408457776e-05 -2.155078333045275e-04 0.000000000000000e+00
-1.064496121607186e-05 -2.041271157935706e-04 0.000000000000000e+00
-1.109648191740942e-05 -1.791192288127854e-04 0.000000000000000e+00
-2.399300851392926e-05 -1.880982619177203e-04 0.000000000000000e+00
-2.288837375126552e-05 -2.425549856838148e-04 0.000000000000000e+00
-1.002275427966147e-05 -2.286573570448504e-04 0.000000000000000e+00
-1.064496121607186e-05 -2.041271157935706e-04 0.000000000000000e+00
-2.360277408457776e-05 -2.155078333045275e-04 0.000000000000000e+00
-2.188117813819382e-05 -2.689154794739888e-04 0.000000000000000e+00
-9.259225544858535e-06 -2.523267679481309e-04 0.000000000000000e+00
-1.002275427966147e-05 -2.286573570448504e-04 0.000000000000000e+00
-2.288837375126552e-05 -2.425549856838148e-04 0.000000000000000e+00
-2.065559128520156e-05 -2.940789948463127e-04 0.000000000000000e+00
-8.387313978095105e-06 -2.746649351503255e-04 0.000000000000000e+00
-9.259225544858535e-06 -2.523267679481309e-04 0.000000000000000e+00
-2.188117813819382e-05 -2.689154794739888e-04 0.000000000000000e+00
-1.924334208229881e-05 -3.173224997140453e-04 0.000000000000000e+00
-7.384506320645370e-06 -2.951608369627425e-04 0.000000000000000e+00
-8.387313978095105e-06 -2.746649351503255e-04 0.000000000000000e+00
-2.065559128520156e-05 -2.940789948463127e-04 0.000000000000000e+00
-1.750901112430405e-05 -3.380865343042986e-04 0.000000000000000e+00
-6.134241266934361e-06 -3.134604506599348e-04 0.000000000000000e+00
-7.384506320645370e-06 -2.951608369627425e-04 0.000000000000000e+00
-1.924334208229881e-05 -3.173224997140453e-04 0.000000000000000e+00
-1.515239276133858e-05 -3.566514987000862e-04 0.000000000000000e+00
-4.518973266074962e-06 -3.295702070516719e-04 0.000000000000000e+00
-6.134241266934361e-06 -3.134604506599348e-04 0.000000000000000e+00
-1.750901112430405e-05 -3.380865343042986e-04 0.000000000000000e+00
-1.200246549138350e-05 -3.743712787906533e-04 0.000000000000000e+00
-2.699493878125769e-06 -3.436772679130101e-04 0.000000000000000e+00
-4.518973266074962e-06 -3.295702070516719e-04 0.000000000000000e+00
-1.515239276133858e-05 -3.566514987000862e-04 0.000000000000000e+00
-8.540902539075725e-06 -3.924418823203164e-04 0.000000000000000e+00
-1.442899866824117e-06 -3.552124695785477e-04 0.000000000000000e+00
-2.699493878125769e-06 -3.436772679130101e-04 0.000000000000000e+00
-1.200246549138350e-05 -3.743712787906533e-04 0.000000000000000e+00
-6.253297888025241e-06 -4.089301937868286e-04 0.000000000000000e+00
-2.145923083669703e-06 -3.612928526319472e-04 0.000000000000000e+00
-1.442899866824117e-06 -3.552124695785477e-04 0.000000000000000e+00
-8.540902539075725e-06 -3.924418823203164e-04 0.000000000000000e+00
-7.242934523911136e-06 -4.155114429961325e-04 0.000000000000000e+00
-6.172090847305688e-06 -3.555604794842886e-04 0.000000000000000e+00
-2.145923083669703e-06 -3.612928526319472e-04 0.000000000000000e+00
-6.253297888025241e-06 -4.089301937868286e-04 0.000000000000000e+00
-1.277524416261879e-05 -3.970719747448974e-04 0.000000000000000e+00
-1.344987872501679e-05 -3.291094110148653e-04 0.000000000000000e+00
-6.172090847305688e-06 -3.555604794842886e-04 0.000000000000000e+00
-7.242934523911136e-06 -4.155114429961325e-04 0.000000000000000e+00
-2.105603440943709e-05 -3.376578915054566e-04 0.000000000000000e+00
-2.099165348195171e-05 -2.748000535396555e-04 0.000000000000000e+00
-1.344987872501679e-05 -3.291094110148653e-04 0.000000000000000e+00
-1.277524416261879e-05 -3.970719747448974e-04 0.000000000000000e+00
-2.547634717254121e-05 -2.337952360157204e-04 0.000000000000000e+00
-2.302169275878443e-05 -1.941740006539246e-04 0.000000000000000e+00
-2.099165348195171e-05 -2.748000535396555e-04 0.000000000000000e+00
-2.105603440943709e-05 -3.376578915054566e-04 0.000000000000000e+00
-1.657535671805730e-05 -1.110831647592921e-04 0.000000000000000e+00
-1.581402300632237e-05 -9.875812403169376e-05 0.000000000000000e+00
-2.302169275878443e-05 -1.941740006539246e-04 0.000000000000000e+00
-2.547634717254121e-05 -2.337952360157204e-04 0.000000000000000e+00
0.000000000000000e+00 0.000000000000000e+00 0.000000000000000e+00
0.000000000000000e+00 0.000000000000000e+00 0.000000000000000e+00
-1.581402300632237e-05 -9.875812403169376e-05 0.000000000000000e+00
-1.657535671805730e-05 -1.110831647592921e-04 0.000000000000000e+00
-4.977903726996848e-06 2.266529763915750e-05 0.000000000000000e+00
-3.519450971599305e-06 1.614760679948610e-05 0.000000000000000e+00
0.000000000000000e+00 0.000000000000000e+00 0.000000000000000e+00
0.000000000000000e+00 0.000000000000000e+00 0.000000000000000e+00
-6.330048562865161e-06 3.962625479264564e-05 0.000000000000000e+00
-4.478884786868543e-06 2.803799779497805e-05 0.000000000000000e+00
-3.519450971599305e-06 1.614760679948610e-05 0.000000000000000e+00
-4.977903726996848e-06 2.266529763915750e-05 0.000000000000000e+00
-5.491266306082297e-06 4.736766294132781e-05 0.000000000000000e+00
-3.803699430391939e-06 3.383181297034599e-05 0.000000000000000e+00
-4.478884786868543e-06 2.803799779497805e-05 0.000000000000000e+00
-6.330048562865161e-06 3.962625479264564e-05 0.000000000000000e+00
-4.666445163508844e-06 4.550378029611775e-05 0.000000000000000e+00
-2.743179508437465e-06 3.320671850775241e-05 0.000000000000000e+00
-3.803699430391939e-06 3.383181297034599e-05 0.000000000000000e+00
-5.491266306082297e-06 4.736766294132781e-05 0.000000000000000e+00
-5.160962301553707e-06 3.719721250657761e-05 0.000000000000000e+00
-2.155771309253401e-06 2.739244522209496e-05 0.000000000000000e+00
-2.743179508437465e-06 3.320671850775241e-05 0.000000000000000e+00
-4.666445163508844e-06 4.550378029611775e-05 0.000000000000000e+00
-6.590810820810100e-06 2.592741494601639e-05 0.000000000000000e+00
-2.161055857547108e-06 1.810310474131067e-05 0.000000000000000e+00
-2.155771309253401e-06 2.739244522209496e-05 0.000000000000000e+00
-5.160962301553707e-06 3.719721250657761e-05 0.000000000000000e+00
-8.077078551592359e-06 1.314353892223019e-05 0.000000000000000e+00
-2.404424953977571e-06 6.474169881081693e-06 0.000000000000000e+00
-2.161055857547108e-06 1.810310474131067e-05 0.000000000000000e+00
-6.590810820810100e-06 2.592741494601639e-05 0.000000000000000e+00
-9.141438213707410e-06 -1.353763236441602e-06 0.000000000000000e+00
-2.557681867590595e-06 -7.147188161446111e-06 0.000000000000000e+00
-2.404424953977571e-06 6.474169881081693e-06 0.000000000000000e+00
-8.077078551592359e-06 1.314353892223019e-05 0.000000000000000e+00
-9.811150926718947e-06 -1.811134947096605e-05 0.000000000000000e+00
-2.527918705374489e-06 -2.277488317408191e-05 0.000000000000000e+00
-2.557681867590595e-06 -7.147188161446111e-06 0.000000000000000e+00
-9.141438213707410e-06 -1.353763236441602e-06 0.000000000000000e+00
-1.030242307096081e-05 -3.722458953511283e-05 0.000000000000000e+00
-2.382980077236650e-06 -4.036245179589444e-05 0.000000000000000e+00