<?xml version="1.0" ?> 
<!-- 
# vtk DataFile Version 3.0
-->
<VTKFile type="UnstructuredGrid" version="0.1" compressor="vtkZLibDataCompressor" byte_order="LittleEndian">
  <UnstructuredGrid>
    <FieldData>
      <DataArray type="Float64" Name="TIME" NumberOfTuples="1" format="ascii">
6.000000000000000e+02 
      </DataArray>
    </FieldData>

    <Piece NumberOfPoints="3972" NumberOfCells="993" >
      <Points>
        <DataArray type="Float64" NumberOfComponents="3" format="ascii">
0.000000000000000e+00 0.000000000000000e+00 0.000000000000000e+00
5.000000000000000e-03 0.000000000000000e+00 0.000000000000000e+00
5.000000000000000e-03 5.000000000000002e-03 0.000000000000000e+00
0.000000000000000e+00 5.000000000000000e-03 0.000000000000000e+00
5.000000000000000e-03 0.000000000000000e+00 0.000000000000000e+00
1.000000000000000e-02 0.000000000000000e+00 0.000000000000000e+00
1.000000000000000e-02 4.999999999999999e-03 0.000000000000000e+00
5.000000000000000e-03 5.000000000000002e-03 0.000000000000000e+00
1.000000000000000e-02 0.000000000000000e+00 0.000000000000000e+00
1.500000000000000e-02 0.000000000000000e+00 0.000000000000000e+00
1.500000000000000e-02 5.000000000000000e-03 0.000000000000000e+00
1.000000000000000e-02 4.999999999999999e-03 0.000000000000000e+00
1.500000000000000e-02 0.000000000000000e+00 0.000000000000000e+00
2.000000000000000e-02 0.000000000000000e+00 0.000000000000000e+00
2.000000000000000e-02 5.000000000000002e-03 0.000000000000000e+00
1.500000000000000e-02 5.000000000000000e-03 0.000000000000000e+00
2.000000000000000e-02 0.000000000000000e+00 0.000000000000000e+00
2.500000000000000e-02 0.000000000000000e+00 0.000000000000000e+00
2.500000000000000e-02 5.000000000000000e-03 0.000000000000000e+00
2.000000000000000e-02 5.000000000000002e-03 0.000000000000000e+00
2.500000000000000e-02 0.000000000000000e+00 0.000000000000000e+00
3.000000000000000e-02 0.000000000000000e+00 0.000000000000000e+00
3.000000000000000e-02 5.000000000000000e-03 0.000000000000000e+00
2.500000000000000e-02 5.000000000000000e-03 0.000000000000000e+00
3.000000000000000e-02 0.000000000000000e+00 0.000000000000000e+00
3.500000000000000e-02 0.000000000000000e+00 0.000000000000000e+00
3.500000000000000e-02 5.000000000000000e-03 0.000000000000000e+00
3.000000000000000e-02 5.000000000000000e-03 0.000000000000000e+00
3.500000000000000e-02 0.000000000000000e+00 0.000000000000000e+00
4.000000000000000e-02 0.000000000000000e+00 0.000000000000000e+00
4.000000000000000e-02 5.000000000000000e-03 0.000000000000000e+00
3.500000000000000e-02 5.000000000000000e-03 0.000000000000000e+00
4.000000000000000e-02 0.000000000000000e+00 0.000000000000000e+00
4.500000000000000e-02 0.000000000000000e+00 0.000000000000000e+00
4.500000000000001e-02 5.000000000000000e-03 0.000000000000000e+00
4.000000000000000e-02 5.000000000000000e-03 0.000000000000000e+00
4.500000000000000e-02 0.000000000000000e+00 0.000000000000000e+00
5.000000000000000e-02 0.000000000000000e+00 0.000000000000000e+00
5.000000000000000e-02 5.000000000000001e-03 0.000000000000000e+00
4.500000000000001e-02 5.000000000000000e-03 0.000000000000000e+00
5.000000000000000e-02 0.000000000000000e+00 0.000000000000000e+00
5.500000000000000e-02 0.000000000000000e+00 0.000000000000000e+00
5.500000000000001e-02 5.000000000000000e-03 0.000000000000000e+00
5.000000000000000e-02 5.000000000000001e-03 0.000000000000000e+00
5.500000000000000e-02 0.000000000000000e+00 0.000000000000000e+00
6.000000000000000e-02 0.000000000000000e+00 0.000000000000000e+00
6.000000000000000e-02 5.000000000000000e-03 0.000000000000000e+00
5.500000000000001e-02 5.000000000000000e-03 0.000000000000000e+00
6.000000000000000e-02 0.000000000000000e+00 0.000000000000000e+00
6.500000000000000e-02 0.000000000000000e+00 0.000000000000000e+00
6.500000000000002e-02 5.000000000000000e-03 0.000000000000000e+00
6.000000000000000e-02 5.000000000000000e-03 0.000000000000000e+00
6.500000000000000e-02 0.000000000000000e+00 0.000000000000000e+00
7.000000000000001e-02 0.000000000000000e+00 0.000000000000000e+00
6.999999999999999e-02 4.999999999999999e-03 0.000000000000000e+00
6.500000000000002e-02 5.000000000000000e-03 0.000000000000000e+00
7.000000000000001e-02 0.000000000000000e+00 0.000000000000000e+00
7.500000000000000e-02 0.000000000000000e+00 0.000000000000000e+00
7.500000000000000e-02 5.000000000000000e-03 0.000000000000000e+00
6.999999999999999e-02 4.999999999999999e-03 0.000000000000000e+00
0.000000000000000e+00 5.000000000000000e-03 0.000000000000000e+00
5.000000000000000e-03 5.000000000000002e-03 0.000000000000000e+00
4.999999999999999e-03 1.000000000000000e-02 0.000000000000000e+00
0.000000000000000e+00 1.000000000000000e-02 0.000000000000000e+00
5.000000000000000e-03 5.000000000000002e-03 0.000000000000000e+00
1.000000000000000e-02 4.999999999999999e-03 0.000000000000000e+00
9.999999999999998e-03 9.999999999999998e-03 0.000000000000000e+00
4.999999999999999e-03 1.000000000000000e-02 0.000000000000000e+00
1.000000000000000e-02 4.999999999999999e-03 0.000000000000000e+00
1.500000000000000e-02 5.000000000000000e-03 0.000000000000000e+00
1.500000000000000e-02 1.000000000000000e-02 0.000000000000000e+00
9.999999999999998e-03 9.999999999999998e-03 0.000000000000000e+00
1.500000000000000e-02 5.000000000000000e-03 0.000000000000000e+00
2.000000000000000e-02 5.000000000000002e-03 0.000000000000000e+00
2.000000000000000e-02 1.000000000000000e-02 0.000000000000000e+00
1.500000000000000e-02 1.000000000000000e-02 0.000000000000000e+00
2.000000000000000e-02 5.000000000000002e-03 0.000000000000000e+00
2.500000000000000e-02 5.000000000000000e-03 0.000000000000000e+00
2.500000000000000e-02 1.000000000000000e-02 0.000000000000000e+00
2.000000000000000e-02 1.000000000000000e-02 0.000000000000000e+00
2.500000000000000e-02 5.000000000000000e-03 0.000000000000000e+00
3.000000000000000e-02 5.000000000000000e-03 0.000000000000000e+00
3.000000000000000e-02 1.000000000000000e-02 0.000000000000000e+00
2.500000000000000e-02 1.000000000000000e-02 0.000000000000000e+00
3.000000000000000e-02 5.000000000000000e-03 0.000000000000000e+00
3.500000000000000e-02 5.000000000000000e-03 0.000000000000000e+00
3.500000000000001e-02 1.000000000000000e-02 0.000000000000000e+00
3.000000000000000e-02 1.000000000000000e-02 0.000000000000000e+00
3.500000000000000e-02 5.000000000000000e-03 0.000000000000000e+00
4.000000000000000e-02 5.000000000000000e-03 0.000000000000000e+00
3.999999999999999e-02 1.000000000000000e-02 0.000000000000000e+00
3.500000000000001e-02 1.000000000000000e-02 0.000000000000000e+00
4.000000000000000e-02 5.000000000000000e-03 0.000000000000000e+00
4.500000000000001e-02 5.000000000000000e-03 0.000000000000000e+00
4.500000000000000e-02 1.000000000000000e-02 0.000000000000000e+00
3.999999999999999e-02 1.000000000000000e-02 0.000000000000000e+00
4.500000000000001e-02 5.000000000000000e-03 0.000000000000000e+00
5.000000000000000e-02 5.000000000000001e-03 0.000000000000000e+00
5.000000000000001e-02 1.000000000000000e-02 0.000000000000000e+00
4.500000000000000e-02 1.000000000000000e-02 0.000000000000000e+00
5.000000000000000e-02 5.000000000000001e-03 0.000000000000000e+00
5.500000000000001e-02 5.000000000000000e-03 0.000000000000000e+00
5.500000000000000e-02 1.000000000000000e-02 0.000000000000000e+00
5.000000000000001e-02 1.000000000000000e-02 0.000000000000000e+00
5.500000000000001e-02 5.000000000000000e-03 0.000000000000000e+00
6.000000000000000e-02 5.000000000000000e-03 0.000000000000000e+00
6.000000000000000e-02 1.000000000000000e-02 0.000000000000000e+00
5.500000000000000e-02 1.000000000000000e-02 0.000000000000000e+00
6.000000000000000e-02 5.000000000000000e-03 0.000000000000000e+00
6.500000000000002e-02 5.000000000000000e-03 0.000000000000000e+00
6.499999999999999e-02 1.000000000000000e-02 0.000000000000000e+00
6.000000000000000e-02 1.000000000000000e-02 0.000000000000000e+00
6.500000000000002e-02 5.000000000000000e-03 0.000000000000000e+00
6.999999999999999e-02 4.999999999999999e-03 0.000000000000000e+00
7.000000000000002e-02 9.999999999999998e-03 0.000000000000000e+00
6.499999999999999e-02 1.000000000000000e-02 0.000000000000000e+00
6.999999999999999e-02 4.999999999999999e-03 0.000000000000000e+00
7.500000000000000e-02 5.000000000000000e-03 0.000000000000000e+00
7.500000000000000e-02 1.000000000000000e-02 0.000000000000000e+00
7.000000000000002e-02 9.999999999999998e-03 0.000000000000000e+00
0.000000000000000e+00 1.000000000000000e-02 0.000000000000000e+00
4.999999999999999e-03 1.000000000000000e-02 0.000000000000000e+00
5.000000000000000e-03 1.500000000000000e-02 0.000000000000000e+00
0.000000000000000e+00 1.500000000000000e-02 0.000000000000000e+00
4.999999999999999e-03 1.000000000000000e-02 0.000000000000000e+00
9.999999999999998e-03 9.999999999999998e-03 0.000000000000000e+00
1.000000000000000e-02 1.500000000000000e-02 0.000000000000000e+00
5.000000000000000e-03 1.500000000000000e-02 0.000000000000000e+00
9.999999999999998e-03 9.999999999999998e-03 0.000000000000000e+00
1.500000000000000e-02 1.000000000000000e-02 0.000000000000000e+00
1.500000000000000e-02 1.500000000000000e-02 0.000000000000000e+00
1.000000000000000e-02 1.500000000000000e-02 0.000000000000000e+00
1.500000000000000e-02 1.000000000000000e-02 0.000000000000000e+00
2.000000000000000e-02 1.000000000000000e-02 0.000000000000000e+00
2.000000000000000e-02 1.500000000000000e-02 0.000000000000000e+00
1.500000000000000e-02 1.500000000000000e-02 0.000000000000000e+00
2.000000000000000e-02 1.000000000000000e-02 0.000000000000000e+00
2.500000000000000e-02 1.000000000000000e-02 0.000000000000000e+00
2.500000000000000e-02 1.500000000000000e-02 0.000000000000000e+00
2.000000000000000e-02 1.500000000000000e-02 0.000000000000000e+00
2.500000000000000e-02 1.000000000000000e-02 0.000000000000000e+00
3.000000000000000e-02 1.000000000000000e-02 0.000000000000000e+00
3.000000000000000e-02 1.500000000000000e-02 0.000000000000000e+00
2.500000000000000e-02 1.500000000000000e-02 0.000000000000000e+00
[...]
  <PointData>
        <DataArray type="Float64" Name="ale-displacement" NumberOfComponents="2" format="ascii">
0.000000000000000e+00 0.000000000000000e+00
2.177329028660655e-08 0.000000000000000e+00
2.177364237881836e-08 2.177364237852394e-08
0.000000000000000e+00 2.177329028751761e-08
2.177329028660655e-08 0.000000000000000e+00
4.354866225848590e-08 0.000000000000000e+00
4.354936604715058e-08 2.177469789645397e-08
2.177364237881836e-08 2.177364237852394e-08
4.354866225848590e-08 0.000000000000000e+00
6.532819374068825e-08 0.000000000000000e+00
6.532924841188846e-08 2.177645455275521e-08
4.354936604715058e-08 2.177469789645397e-08
6.532819374068825e-08 0.000000000000000e+00
8.711395476729511e-08 0.000000000000000e+00
8.711535904442140e-08 2.177890845384699e-08
6.532924841188846e-08 2.177645455275521e-08
8.711395476729511e-08 0.000000000000000e+00
1.089080035165774e-07 0.000000000000000e+00
1.089097555947056e-07 2.178205399333673e-08
8.711535904442140e-08 2.177890845384699e-08
1.089080035165774e-07 0.000000000000000e+00
1.307123820255184e-07 0.000000000000000e+00
1.307144794730578e-07 2.178588372363485e-08
1.089097555947056e-07 2.178205399333673e-08
1.307123820255184e-07 0.000000000000000e+00
1.525291115315664e-07 0.000000000000000e+00
1.525315512194043e-07 2.179038821126258e-08
1.307144794730578e-07 2.178588372363485e-08
1.525291115315664e-07 0.000000000000000e+00
1.743601873727124e-07 0.000000000000000e+00
1.743629653892972e-07 2.179555592340688e-08
1.525315512194043e-07 2.179038821126258e-08
1.743601873727124e-07 0.000000000000000e+00
1.962075732166237e-07 0.000000000000000e+00
1.962106847474570e-07 2.180137316614385e-08
1.743629653892972e-07 2.179555592340688e-08
1.962075732166237e-07 0.000000000000000e+00
2.180731943612844e-07 0.000000000000000e+00
2.180766336862163e-07 2.180782411346458e-08
1.962106847474570e-07 2.180137316614385e-08
2.180731943612844e-07 0.000000000000000e+00
2.399589298656797e-07 0.000000000000000e+00
2.399626903459646e-07 2.181489096590260e-08
2.180766336862163e-07 2.180782411346458e-08
2.399589298656797e-07 0.000000000000000e+00
2.618666031968180e-07 0.000000000000000e+00
2.618706772787596e-07 2.182255424296145e-08
2.399626903459646e-07 2.181489096590260e-08
2.618666031968180e-07 0.000000000000000e+00
2.837979709812824e-07 0.000000000000000e+00
2.838023502807037e-07 2.183079319949971e-08
2.618706772787596e-07 2.182255424296145e-08
2.837979709812824e-07 0.000000000000000e+00
3.057547094636076e-07 0.000000000000000e+00
3.057593848529200e-07 2.183958634407024e-08
2.838023502807037e-07 2.183079319949971e-08
3.057547094636076e-07 0.000000000000000e+00
3.277383984712568e-07 0.000000000000000e+00
3.277433601562744e-07 2.184891195792903e-08
3.057593848529200e-07 2.183958634407024e-08
0.000000000000000e+00 2.177329028751761e-08
2.177364237881836e-08 2.177364237852394e-08
2.177469789647656e-08 4.354936604768216e-08
0.000000000000000e+00 4.354866225950694e-08
2.177364237881836e-08 2.177364237852394e-08
4.354936604715058e-08 2.177469789645397e-08
4.355147591413086e-08 4.355147591384642e-08
2.177469789647656e-08 4.354936604768216e-08
4.354936604715058e-08 2.177469789645397e-08
6.532924841188846e-08 2.177645455275521e-08
6.533241021219792e-08 4.355498731388841e-08
4.355147591413086e-08 4.355147591384642e-08
6.532924841188846e-08 2.177645455275521e-08
8.711535904442140e-08 2.177890845384699e-08
8.711956898320114e-08 4.355989251779046e-08
6.533241021219792e-08 4.355498731388841e-08
8.711535904442140e-08 2.177890845384699e-08
1.089097555947056e-07 2.178205399333673e-08
1.089150082918241e-07 4.356618038244547e-08
8.711956898320114e-08 4.355989251779046e-08
1.089097555947056e-07 2.178205399333673e-08
1.307144794730578e-07 2.178588372363485e-08
1.307207677100661e-07 4.357383607253283e-08
1.089150082918241e-07 4.356618038244547e-08
1.307144794730578e-07 2.178588372363485e-08
1.525315512194043e-07 2.179038821126258e-08
1.525388656583011e-07 4.358284076663061e-08
1.307207677100661e-07 4.357383607253283e-08
1.525315512194043e-07 2.179038821126258e-08
1.743629653892972e-07 2.179555592340688e-08
1.743712942915404e-07 4.359317138949176e-08
1.525388656583011e-07 4.358284076663061e-08
1.743629653892972e-07 2.179555592340688e-08
1.962106847474570e-07 2.180137316614385e-08
1.962200137480080e-07 4.360480045706833e-08
1.743712942915404e-07 4.359317138949176e-08
1.962106847474570e-07 2.180137316614385e-08
2.180766336862163e-07 2.180782411346458e-08
2.180869456164213e-07 4.361769611919447e-08
1.962200137480080e-07 4.360480045706833e-08
2.180766336862163e-07 2.180782411346458e-08
2.399626903459646e-07 2.181489096590260e-08
2.399739651963735e-07 4.363182243908526e-08
2.180869456164213e-07 4.361769611919447e-08
2.399626903459646e-07 2.181489096590260e-08
2.618706772787596e-07 2.182255424296145e-08
2.618828923147344e-07 4.364713997788951e-08
2.399739651963735e-07 4.363182243908526e-08
2.618706772787596e-07 2.182255424296145e-08
2.838023502807037e-07 2.183079319949971e-08
2.838154802176046e-07 4.366360666991372e-08
2.618828923147344e-07 4.364713997788951e-08
2.838023502807037e-07 2.183079319949971e-08
3.057593848529200e-07 2.183958634407024e-08
3.057734021554228e-07 4.368117888010590e-08
2.838154802176046e-07 4.366360666991372e-08
3.057593848529200e-07 2.183958634407024e-08
3.277433601562744e-07 2.184891195792903e-08
3.277582352460692e-07 4.369981251691522e-08
3.057734021554228e-07 4.368117888010590e-08
0.000000000000000e+00 4.354866225950694e-08
2.177469789647656e-08 4.354936604768216e-08
2.177645455240007e-08 6.532924841223067e-08
0.000000000000000e+00 6.532819373943429e-08
2.177469789647656e-08 4.354936604768216e-08
4.355147591413086e-08 4.355147591384642e-08
4.355498731433998e-08 6.533241021172638e-08
2.177645455240007e-08 6.532924841223067e-08
4.355147591413086e-08 4.355147591384642e-08
6.533241021219792e-08 4.355498731388841e-08
6.533767241523630e-08 6.533767241507690e-08
4.355498731433998e-08 6.533241021172638e-08
6.533241021219792e-08 4.355498731388841e-08
8.711956898320114e-08 4.355989251779046e-08
8.712657578276172e-08 6.534502356628344e-08
6.533767241523630e-08 6.533767241507690e-08
8.711956898320114e-08 4.355989251779046e-08
1.089150082918241e-07 4.356618038244547e-08
1.089237508743732e-07 6.535444711993164e-08
8.712657578276172e-08 6.534502356628344e-08
1.089150082918241e-07 4.356618038244547e-08
1.307207677100661e-07 4.357383607253283e-08
1.307312342285435e-07 6.536592100072896e-08
1.089237508743732e-07 6.535444711993164e-08
1.307207677100661e-07 4.357383607253283e-08
1.525388656583011e-07 4.358284076663061e-08
1.525510407374828e-07 6.537941709021124e-08
1.307312342285435e-07 6.536592100072896e-08
1.525388656583011e-07 4.358284076663061e-08
1.743712942915404e-07 4.359317138949176e-08
1.743851585116107e-07 6.539490077771737e-08
1.525510407374828e-07 6.537941709021124e-08
1.743712942915404e-07 4.359317138949176e-08
1.962200137480080e-07 4.360480045706833e-08
1.962355432473531e-07 6.541233064288122e-08
1.743851585116107e-07 6.539490077771737e-08
1.962200137480080e-07 4.360480045706833e-08
2.180869456164213e-07 4.361769611919447e-08
2.181041117414485e-07 6.543165841045696e-08
1.962355432473531e-07 6.541233064288122e-08
2.180869456164213e-07 4.361769611919447e-08
2.399739651963735e-07 4.363182243908526e-08
2.399927344357275e-07 6.545282933946410e-08
2.181041117414485e-07 6.543165841045696e-08
2.399739651963735e-07 4.363182243908526e-08
2.618828923147344e-07 4.364713997788951e-08
2.619032264498049e-07 6.547578308490358e-08
2.399927344357275e-07 6.545282933946410e-08
2.618828923147344e-07 4.364713997788951e-08
2.838154802176046e-07 4.366360666991372e-08
2.838373366874752e-07 6.550045505745186e-08
2.619032264498049e-07 6.547578308490358e-08
2.838154802176046e-07 4.366360666991372e-08
3.057734021554228e-07 4.368117888010590e-08
3.057967345260310e-07 6.552677814810112e-08
2.838373366874752e-07 6.550045505745186e-08
3.057734021554228e-07 4.368117888010590e-08
3.277582352460692e-07 4.369981251691522e-08
3.277829937082292e-07 6.555468453717584e-08
3.057967345260310e-07 6.552677814810112e-08
0.000000000000000e+00 6.532819373943429e-08
2.177645455240007e-08 6.532924841223067e-08
2.177890845415227e-08 8.711535904400866e-08
0.000000000000000e+00 8.711395476729798e-08
2.177645455240007e-08 6.532924841223067e-08
4.355498731433998e-08 6.533241021172638e-08
4.355989251809326e-08 8.711956898410924e-08
2.177890845415227e-08 8.711535904400866e-08
4.355498731433998e-08 6.533241021172638e-08
6.533767241523630e-08 6.533767241507690e-08
6.534502356498365e-08 8.712657578483973e-08
4.355989251809326e-08 8.711956898410924e-08
6.533767241523630e-08 6.533767241507690e-08
8.712657578276172e-08 6.534502356628344e-08
8.713636443527067e-08 8.713636443362936e-08
6.534502356498365e-08 8.712657578483973e-08
8.712657578276172e-08 6.534502356628344e-08
1.089237508743732e-07 6.535444711993164e-08
1.089359650118942e-07 8.714891321561328e-08
8.713636443527067e-08 8.713636443362936e-08
1.089237508743732e-07 6.535444711993164e-08
1.307312342285435e-07 6.536592100072896e-08
1.307458576422117e-07 8.716419303047917e-08
1.089359650118942e-07 8.714891321561328e-08
1.307312342285435e-07 6.536592100072896e-08
1.525510407374828e-07 6.537941709021124e-08
1.525680522921093e-07 8.718216667149119e-08
1.307458576422117e-07 8.716419303047917e-08
1.525510407374828e-07 6.537941709021124e-08
1.743851585116107e-07 6.539490077771737e-08
1.744045313932278e-07 8.720278804919573e-08
1.525680522921093e-07 8.718216667149119e-08
1.743851585116107e-07 6.539490077771737e-08
1.962355432473531e-07 6.541233064288122e-08
1.962572442314009e-07 8.722600163567978e-08
1.744045313932278e-07 8.720278804919573e-08
1.962355432473531e-07 6.541233064288122e-08
2.181041117414485e-07 6.543165841045696e-08
2.181281006994582e-07 8.725174221710715e-08
1.962572442314009e-07 8.722600163567978e-08
2.181041117414485e-07 6.543165841045696e-08
2.399927344357275e-07 6.545282933946410e-08
2.400189641091791e-07 8.727993526478672e-08
2.181281006994582e-07 8.725174221710715e-08
2.399927344357275e-07 6.545282933946410e-08
2.619032264498049e-07 6.547578308490358e-08
2.619316426461725e-07 8.731049806782715e-08
2.400189641091791e-07 8.727993526478672e-08
2.619032264498049e-07 6.547578308490358e-08
2.838373366874752e-07 6.550045505745186e-08
2.838678788615074e-07 8.734334162709695e-08
2.619316426461725e-07 8.731049806782715e-08
2.838373366874752e-07 6.550045505745186e-08
3.057967345260310e-07 6.552677814810112e-08
3.058293365812433e-07 8.737837325173121e-08
2.838678788615074e-07 8.734334162709695e-08
3.057967345260310e-07 6.552677814810112e-08
3.277829937082292e-07 6.555468453717584e-08
3.278175847621686e-07 8.741549927817661e-08
3.058293365812433e-07 8.737837325173121e-08
0.000000000000000e+00 8.711395476729798e-08
2.177890845415227e-08 8.711535904400866e-08
2.178205399362267e-08 1.089097555953493e-07
0.000000000000000e+00 1.089080035175597e-07
2.177890845415227e-08 8.711535904400866e-08
4.355989251809326e-08 8.711956898410924e-08
4.356618038283926e-08 1.089150082903401e-07
2.178205399362267e-08 1.089097555953493e-07
4.355989251809326e-08 8.711956898410924e-08
6.534502356498365e-08 8.712657578483973e-08
6.535444711977826e-08 1.089237508754812e-07
4.356618038283926e-08 1.089150082903401e-07
6.534502356498365e-08 8.712657578483973e-08
8.713636443527067e-08 8.713636443362936e-08
8.714891321528807e-08 1.089359650125872e-07
6.535444711977826e-08 1.089237508754812e-07
8.713636443527067e-08 8.713636443362936e-08
1.089359650118942e-07 8.714891321561328e-08
1.089516241041185e-07 1.089516241002047e-07
8.714891321528807e-08 1.089359650125872e-07
1.089359650118942e-07 8.714891321561328e-08
1.307458576422117e-07 8.716419303047917e-08
1.307646068554047e-07 1.089706923891163e-07
1.089516241041185e-07 1.089516241002047e-07
1.307458576422117e-07 8.716419303047917e-08
1.525680522921093e-07 8.718216667149119e-08
1.525898651776532e-07 1.089931238822509e-07
1.307646068554047e-07 1.089706923891163e-07
1.525680522921093e-07 8.718216667149119e-08
1.744045313932278e-07 8.720278804919573e-08
1.744293741354105e-07 1.090188612402848e-07
1.525898651776532e-07 1.089931238822509e-07
1.744045313932278e-07 8.720278804919573e-08
1.962572442314009e-07 8.722600163567978e-08
1.962850745685185e-07 1.090478347238819e-07
1.744293741354105e-07 1.090188612402848e-07
1.962572442314009e-07 8.722600163567978e-08
2.181281006994582e-07 8.725174221710715e-08
2.181588670735036e-07 1.090799616219227e-07
1.962850745685185e-07 1.090478347238819e-07
2.181281006994582e-07 8.725174221710715e-08
2.400189641091791e-07 8.727993526478672e-08
2.400526052378210e-07 1.091151463936779e-07
2.181588670735036e-07 1.090799616219227e-07
2.400189641091791e-07 8.727993526478672e-08
2.619316426461725e-07 8.731049806782715e-08
2.619680877028201e-07 1.091532819395008e-07
2.400526052378210e-07 1.091151463936779e-07
2.619316426461725e-07 8.731049806782715e-08
2.838678788615074e-07 8.734334162709695e-08
2.839070483062055e-07 1.091942522049291e-07
2.619680877028201e-07 1.091532819395008e-07
2.838678788615074e-07 8.734334162709695e-08
3.058293365812433e-07 8.737837325173121e-08
3.058711434469217e-07 1.092379358348285e-07
2.839070483062055e-07 1.091942522049291e-07
3.058293365812433e-07 8.737837325173121e-08
3.278175847621686e-07 8.741549927817661e-08
3.278619358758340e-07 1.092842102944946e-07
3.058711434469217e-07 1.092379358348285e-07
0.000000000000000e+00 1.089080035175597e-07
2.178205399362267e-08 1.089097555953493e-07
2.178588372377744e-08 1.307144794729820e-07
0.000000000000000e+00 1.307123820255501e-07
2.178205399362267e-08 1.089097555953493e-07
4.356618038283926e-08 1.089150082903401e-07
4.357383607466776e-08 1.307207677084765e-07
2.178588372377744e-08 1.307144794729820e-07
4.356618038283926e-08 1.089150082903401e-07
6.535444711977826e-08 1.089237508754812e-07
6.536592099990091e-08 1.307312342290839e-07
4.357383607466776e-08 1.307207677084765e-07
6.535444711977826e-08 1.089237508754812e-07
8.714891321528807e-08 1.089359650125872e-07
8.716419302981822e-08 1.307458576419934e-07
6.536592099990091e-08 1.307312342290839e-07
8.714891321528807e-08 1.089359650125872e-07
1.089516241041185e-07 1.089516241002047e-07
1.089706923891346e-07 1.307646068545856e-07
8.716419302981822e-08 1.307458576419934e-07
1.089516241041185e-07 1.089516241002047e-07
1.307646068554047e-07 1.089706923891163e-07
1.307874399214377e-07 1.307874399208443e-07
1.089706923891346e-07 1.307646068545856e-07
1.307646068554047e-07 1.089706923891163e-07
1.525898651776532e-07 1.089931238822509e-07
1.526164318337641e-07 1.308143025907824e-07
1.307874399214377e-07 1.307874399208443e-07
1.525898651776532e-07 1.089931238822509e-07
1.744293741354105e-07 1.090188612402848e-07
1.744596341928110e-07 1.308451266742570e-07
1.526164318337641e-07 1.308143025907824e-07
1.744293741354105e-07 1.090188612402848e-07
1.962850745685185e-07 1.090478347238819e-07
1.963189772827830e-07 1.308798283981004e-07
1.744596341928110e-07 1.308451266742570e-07
1.962850745685185e-07 1.090478347238819e-07
2.181588670735036e-07 1.090799616219227e-07
2.181963497240897e-07 1.309183070908111e-07
1.963189772827830e-07 1.308798283981004e-07
2.181588670735036e-07 1.090799616219227e-07
2.400526052378210e-07 1.091151463936779e-07
2.400935922867679e-07 1.309604448292571e-07
2.181963497240897e-07 1.309183070908111e-07
2.400526052378210e-07 1.091151463936779e-07
2.619680877028201e-07 1.091532819395008e-07
2.620124908529195e-07 1.310061076209390e-07
2.400935922867679e-07 1.309604448292571e-07
2.619680877028201e-07 1.091532819395008e-07
2.839070483062055e-07 1.091942522049291e-07
2.839547676280848e-07 1.310551486746409e-07
2.620124908529195e-07 1.310061076209390e-07
2.839070483062055e-07 1.091942522049291e-07
3.058711434469217e-07 1.092379358348285e-07
3.059220693933976e-07 1.311074136639012e-07
2.839547676280848e-07 1.310551486746409e-07
3.058711434469217e-07 1.092379358348285e-07
3.278619358758340e-07 1.092842102944946e-07
3.279159513052279e-07 1.311627469602990e-07
3.059220693933976e-07 1.311074136639012e-07
0.000000000000000e+00 1.307123820255501e-07
2.178588372377744e-08 1.307144794729820e-07
2.179038821156274e-08 1.525315512253681e-07
0.000000000000000e+00 1.525291115265164e-07
2.178588372377744e-08 1.307144794729820e-07
4.357383607466776e-08 1.307207677084765e-07
4.358284076666843e-08 1.525388656587304e-07
2.179038821156274e-08 1.525315512253681e-07
4.357383607466776e-08 1.307207677084765e-07
6.536592099990091e-08 1.307312342290839e-07
6.537941709076294e-08 1.525510407325474e-07
4.358284076666843e-08 1.525388656587304e-07
6.536592099990091e-08 1.307312342290839e-07
8.716419302981822e-08 1.307458576419934e-07
8.718216667154049e-08 1.525680522953514e-07
6.537941709076294e-08 1.525510407325474e-07
8.716419302981822e-08 1.307458576419934e-07
1.089706923891346e-07 1.307646068545856e-07
1.089931238847926e-07 1.525898651805058e-07
8.718216667154049e-08 1.525680522953514e-07
1.089706923891346e-07 1.307646068545856e-07
1.307874399214377e-07 1.307874399208443e-07
1.308143025903779e-07 1.526164318289515e-07
1.089931238847926e-07 1.525898651805058e-07
1.307874399214377e-07 1.307874399208443e-07
1.526164318337641e-07 1.308143025907824e-07
1.526476904674411e-07 1.526476904674916e-07
1.308143025903779e-07 1.526164318289515e-07
1.526164318337641e-07 1.308143025907824e-07
1.744596341928110e-07 1.308451266742570e-07
1.744952431314703e-07 1.526835628124951e-07
1.526476904674411e-07 1.526476904674916e-07
1.744596341928110e-07 1.308451266742570e-07
1.963189772827830e-07 1.308798283981004e-07
1.963588782043871e-07 1.527239516269932e-07
1.744952431314703e-07 1.526835628124951e-07
1.963189772827830e-07 1.308798283981004e-07
2.181963497240897e-07 1.309183070908111e-07
2.182404694135393e-07 1.527687382521093e-07
1.963588782043871e-07 1.527239516269932e-07
2.181963497240897e-07 1.309183070908111e-07
2.400935922867679e-07 1.309604448292571e-07
2.401418409858156e-07 1.528177811618486e-07
2.182404694135393e-07 1.527687382521093e-07
2.400935922867679e-07 1.309604448292571e-07
2.620124908529195e-07 1.310061076209390e-07
2.620647618592252e-07 1.528709164786402e-07
2.401418409858156e-07 1.528177811618486e-07
2.620124908529195e-07 1.310061076209390e-07
2.839547676280848e-07 1.310551486746409e-07
2.840109387837671e-07 1.529279617969902e-07
2.620647618592252e-07 1.528709164786402e-07
2.839547676280848e-07 1.310551486746409e-07
3.059220693933976e-07 1.311074136639012e-07
3.059820061343985e-07 1.529887237078923e-07
2.840109387837671e-07 1.529279617969902e-07
3.059220693933976e-07 1.311074136639012e-07
3.279159513052279e-07 1.311627469602990e-07
3.279795102467428e-07 1.530530075630203e-07
3.059820061343985e-07 1.529887237078923e-07
0.000000000000000e+00 1.525291115265164e-07
2.179038821156274e-08 1.525315512253681e-07
2.179555592457937e-08 1.743629653856750e-07
0.000000000000000e+00 1.743601873741244e-07
2.179038821156274e-08 1.525315512253681e-07
4.358284076666843e-08 1.525388656587304e-07
4.359317138821517e-08 1.743712942897103e-07
2.179555592457937e-08 1.743629653856750e-07
4.358284076666843e-08 1.525388656587304e-07
6.537941709076294e-08 1.525510407325474e-07
6.539490077882400e-08 1.743851585152090e-07
4.359317138821517e-08 1.743712942897103e-07
6.537941709076294e-08 1.525510407325474e-07
8.718216667154049e-08 1.525680522953514e-07
8.720278805165308e-08 1.744045313931449e-07
6.539490077882400e-08 1.743851585152090e-07
8.718216667154049e-08 1.525680522953514e-07
1.089931238847926e-07 1.525898651805058e-07
1.090188612392917e-07 1.744293741326718e-07
8.720278805165308e-08 1.744045313931449e-07
1.089931238847926e-07 1.525898651805058e-07
1.308143025903779e-07 1.526164318289515e-07
1.308451266757507e-07 1.744596341909104e-07
1.090188612392917e-07 1.744293741326718e-07
1.308143025903779e-07 1.526164318289515e-07
1.526476904674411e-07 1.526476904674916e-07
1.526835628128616e-07 1.744952431341591e-07
1.308451266757507e-07 1.744596341909104e-07
1.526476904674411e-07 1.526476904674916e-07
1.744952431314703e-07 1.526835628124951e-07
1.745361137610724e-07 1.745361137644743e-07
1.526835628128616e-07 1.744952431341591e-07