<?xml version="1.0" ?> 
<!-- 
# vtk DataFile Version 3.0
-->
<VTKFile type="UnstructuredGrid" version="0.1" compressor="vtkZLibDataCompressor" byte_order="LittleEndian">
  <UnstructuredGrid>
    <FieldData>
      <DataArray type="Float64" Name="TIME" NumberOfTuples="1" format="ascii">
6.000000000000000e+02 
      </DataArray>
    </FieldData>

    <Piece NumberOfPoints="4008" NumberOfCells="1002" >
      <Points>
        <DataArray type="Float64" NumberOfComponents="3" format="ascii">
2.404163056034261e-01 2.404163056034261e-01 0.000000000000000e+00
2.474873734152916e-01 2.474873734152916e-01 0.000000000000000e+00
2.341957122256003e-01 2.601006889170879e-01 0.000000000000000e+00
2.275044061620118e-01 2.526692406623141e-01 0.000000000000000e+00
2.474873734152916e-01 2.474873734152916e-01 0.000000000000000e+00
2.545584412271570e-01 2.545584412271570e-01 0.000000000000000e+00
2.408870182891890e-01 2.675321371718619e-01 0.000000000000000e+00
2.341957122256003e-01 2.601006889170879e-01 0.000000000000000e+00
2.545584412271570e-01 2.545584412271570e-01 0.000000000000000e+00
2.616295090390225e-01 2.616295090390225e-01 0.000000000000000e+00
2.475783243527774e-01 2.749635854266358e-01 0.000000000000000e+00
2.408870182891890e-01 2.675321371718619e-01 0.000000000000000e+00
2.616295090390225e-01 2.616295090390225e-01 0.000000000000000e+00
2.687005768508879e-01 2.687005768508879e-01 0.000000000000000e+00
2.542696304163661e-01 2.823950336814097e-01 0.000000000000000e+00
2.475783243527774e-01 2.749635854266358e-01 0.000000000000000e+00
2.687005768508879e-01 2.687005768508879e-01 0.000000000000000e+00
2.757716446627534e-01 2.757716446627534e-01 0.000000000000000e+00
2.609609364799546e-01 2.898264819361837e-01 0.000000000000000e+00
2.542696304163661e-01 2.823950336814097e-01 0.000000000000000e+00
2.757716446627534e-01 2.757716446627534e-01 0.000000000000000e+00
2.828427124746189e-01 2.828427124746189e-01 0.000000000000000e+00
2.676522425435433e-01 2.972579301909576e-01 0.000000000000000e+00
2.609609364799546e-01 2.898264819361837e-01 0.000000000000000e+00
2.828427124746189e-01 2.828427124746189e-01 0.000000000000000e+00
2.899137802864844e-01 2.899137802864844e-01 0.000000000000000e+00
2.743435486071319e-01 3.046893784457316e-01 0.000000000000000e+00
2.676522425435433e-01 2.972579301909576e-01 0.000000000000000e+00
2.899137802864844e-01 2.899137802864844e-01 0.000000000000000e+00
2.969848480983499e-01 2.969848480983499e-01 0.000000000000000e+00
2.810348546707205e-01 3.121208267005055e-01 0.000000000000000e+00
2.743435486071319e-01 3.046893784457316e-01 0.000000000000000e+00
2.969848480983499e-01 2.969848480983499e-01 0.000000000000000e+00
3.040559159102154e-01 3.040559159102154e-01 0.000000000000000e+00
2.877261607343089e-01 3.195522749552794e-01 0.000000000000000e+00
2.810348546707205e-01 3.121208267005055e-01 0.000000000000000e+00
3.040559159102154e-01 3.040559159102154e-01 0.000000000000000e+00
3.111269837220808e-01 3.111269837220808e-01 0.000000000000000e+00
2.944174667978975e-01 3.269837232100534e-01 0.000000000000000e+00
2.877261607343089e-01 3.195522749552794e-01 0.000000000000000e+00
3.111269837220808e-01 3.111269837220808e-01 0.000000000000000e+00
3.181980515339463e-01 3.181980515339463e-01 0.000000000000000e+00
3.011087728614862e-01 3.344151714648272e-01 0.000000000000000e+00
2.944174667978975e-01 3.269837232100534e-01 0.000000000000000e+00
3.181980515339463e-01 3.181980515339463e-01 0.000000000000000e+00
3.252691193458118e-01 3.252691193458118e-01 0.000000000000000e+00
3.078000789250747e-01 3.418466197196012e-01 0.000000000000000e+00
3.011087728614862e-01 3.344151714648272e-01 0.000000000000000e+00
3.252691193458118e-01 3.252691193458118e-01 0.000000000000000e+00
3.323401871576773e-01 3.323401871576773e-01 0.000000000000000e+00
3.144913849886633e-01 3.492780679743752e-01 0.000000000000000e+00
3.078000789250747e-01 3.418466197196012e-01 0.000000000000000e+00
3.323401871576773e-01 3.323401871576773e-01 0.000000000000000e+00
3.394112549695427e-01 3.394112549695427e-01 0.000000000000000e+00
3.211826910522518e-01 3.567095162291490e-01 0.000000000000000e+00
3.144913849886633e-01 3.492780679743752e-01 0.000000000000000e+00
3.394112549695427e-01 3.394112549695427e-01 0.000000000000000e+00
3.464823227814082e-01 3.464823227814082e-01 0.000000000000000e+00
3.278739971158404e-01 3.641409644839231e-01 0.000000000000000e+00
3.211826910522518e-01 3.567095162291490e-01 0.000000000000000e+00
3.464823227814082e-01 3.464823227814082e-01 0.000000000000000e+00
3.535533905932737e-01 3.535533905932737e-01 0.000000000000000e+00
3.345653031794291e-01 3.715724127386972e-01 0.000000000000000e+00
3.278739971158404e-01 3.641409644839231e-01 0.000000000000000e+00
3.535533905932737e-01 3.535533905932737e-01 0.000000000000000e+00
3.606244584051391e-01 3.606244584051391e-01 0.000000000000000e+00
3.412566092430176e-01 3.790038609934711e-01 0.000000000000000e+00
3.345653031794291e-01 3.715724127386972e-01 0.000000000000000e+00
3.606244584051391e-01 3.606244584051391e-01 0.000000000000000e+00
3.676955262170046e-01 3.676955262170046e-01 0.000000000000000e+00
3.479479153066062e-01 3.864353092482449e-01 0.000000000000000e+00
3.412566092430176e-01 3.790038609934711e-01 0.000000000000000e+00
3.676955262170046e-01 3.676955262170046e-01 0.000000000000000e+00
3.747665940288701e-01 3.747665940288701e-01 0.000000000000000e+00
3.546392213701948e-01 3.938667575030187e-01 0.000000000000000e+00
3.479479153066062e-01 3.864353092482449e-01 0.000000000000000e+00
3.747665940288701e-01 3.747665940288701e-01 0.000000000000000e+00
3.818376618407356e-01 3.818376618407356e-01 0.000000000000000e+00
3.613305274337834e-01 4.012982057577927e-01 0.000000000000000e+00
3.546392213701948e-01 3.938667575030187e-01 0.000000000000000e+00
3.818376618407356e-01 3.818376618407356e-01 0.000000000000000e+00
3.889087296526010e-01 3.889087296526010e-01 0.000000000000000e+00
3.680218334973720e-01 4.087296540125668e-01 0.000000000000000e+00
3.613305274337834e-01 4.012982057577927e-01 0.000000000000000e+00
3.889087296526010e-01 3.889087296526010e-01 0.000000000000000e+00
3.959797974644664e-01 3.959797974644664e-01 0.000000000000000e+00
3.747131395609605e-01 4.161611022673405e-01 0.000000000000000e+00
3.680218334973720e-01 4.087296540125668e-01 0.000000000000000e+00
3.959797974644664e-01 3.959797974644664e-01 0.000000000000000e+00
4.030508652763319e-01 4.030508652763319e-01 0.000000000000000e+00
3.814044456245490e-01 4.235925505221145e-01 0.000000000000000e+00
3.747131395609605e-01 4.161611022673405e-01 0.000000000000000e+00
4.030508652763319e-01 4.030508652763319e-01 0.000000000000000e+00
4.101219330881974e-01 4.101219330881974e-01 0.000000000000000e+00
3.880957516881377e-01 4.310239987768885e-01 0.000000000000000e+00
3.814044456245490e-01 4.235925505221145e-01 0.000000000000000e+00
4.101219330881974e-01 4.101219330881974e-01 0.000000000000000e+00
4.171930009000628e-01 4.171930009000628e-01 0.000000000000000e+00
3.947870577517262e-01 4.384554470316623e-01 0.000000000000000e+00
3.880957516881377e-01 4.310239987768885e-01 0.000000000000000e+00
4.171930009000628e-01 4.171930009000628e-01 0.000000000000000e+00
4.242640687119283e-01 4.242640687119283e-01 0.000000000000000e+00
4.014783638153148e-01 4.458868952864363e-01 0.000000000000000e+00
3.947870577517262e-01 4.384554470316623e-01 0.000000000000000e+00
4.242640687119283e-01 4.242640687119283e-01 0.000000000000000e+00
4.313351365237938e-01 4.313351365237938e-01 0.000000000000000e+00
4.081696698789034e-01 4.533183435412103e-01 0.000000000000000e+00
4.014783638153148e-01 4.458868952864363e-01 0.000000000000000e+00
4.313351365237938e-01 4.313351365237938e-01 0.000000000000000e+00
4.384062043356592e-01 4.384062043356592e-01 0.000000000000000e+00
4.148609759424920e-01 4.607497917959841e-01 0.000000000000000e+00
4.081696698789034e-01 4.533183435412103e-01 0.000000000000000e+00
4.384062043356592e-01 4.384062043356592e-01 0.000000000000000e+00
4.454772721475247e-01 4.454772721475247e-01 0.000000000000000e+00
4.215522820060805e-01 4.681812400507581e-01 0.000000000000000e+00
4.148609759424920e-01 4.607497917959841e-01 0.000000000000000e+00
4.454772721475247e-01 4.454772721475247e-01 0.000000000000000e+00
4.525483399593902e-01 4.525483399593902e-01 0.000000000000000e+00
4.282435880696692e-01 4.756126883055322e-01 0.000000000000000e+00
4.215522820060805e-01 4.681812400507581e-01 0.000000000000000e+00
4.525483399593902e-01 4.525483399593902e-01 0.000000000000000e+00
4.596194077712557e-01 4.596194077712557e-01 0.000000000000000e+00
4.349348941332576e-01 4.830441365603060e-01 0.000000000000000e+00
4.282435880696692e-01 4.756126883055322e-01 0.000000000000000e+00
4.596194077712557e-01 4.596194077712557e-01 0.000000000000000e+00
4.666904755831212e-01 4.666904755831212e-01 0.000000000000000e+00
4.416262001968461e-01 4.904755848150799e-01 0.000000000000000e+00
4.349348941332576e-01 4.830441365603060e-01 0.000000000000000e+00
4.666904755831212e-01 4.666904755831212e-01 0.000000000000000e+00
4.737615433949867e-01 4.737615433949867e-01 0.000000000000000e+00
4.483175062604348e-01 4.979070330698538e-01 0.000000000000000e+00
4.416262001968461e-01 4.904755848150799e-01 0.000000000000000e+00
4.737615433949867e-01 4.737615433949867e-01 0.000000000000000e+00
4.808326112068521e-01 4.808326112068521e-01 0.000000000000000e+00
4.550088123240235e-01 5.053384813246281e-01 0.000000000000000e+00
4.483175062604348e-01 4.979070330698538e-01 0.000000000000000e+00
2.275044061620118e-01 2.526692406623141e-01 0.000000000000000e+00
2.341957122256003e-01 2.601006889170879e-01 0.000000000000000e+00
2.202621368674431e-01 2.720010865099398e-01 0.000000000000000e+00
2.139689329569447e-01 2.642296268953702e-01 0.000000000000000e+00
2.341957122256003e-01 2.601006889170879e-01 0.000000000000000e+00
2.408870182891890e-01 2.675321371718619e-01 0.000000000000000e+00
2.265553407779414e-01 2.797725461245095e-01 0.000000000000000e+00
2.202621368674431e-01 2.720010865099398e-01 0.000000000000000e+00
[...]
  <PointData>
        <DataArray type="Float64" Name="ale-displacement" NumberOfComponents="2" format="ascii">
6.967225460809244e-07 6.967225460874424e-07
6.672471522227164e-07 6.672471522249494e-07
6.314053068889511e-07 7.012634743576725e-07
6.592958412247297e-07 7.322440342124681e-07
6.672471522227164e-07 6.672471522249494e-07
6.397405208401873e-07 6.397405208435979e-07
6.053773088894006e-07 6.723528898392386e-07
6.314053068889511e-07 7.012634743576725e-07
6.397405208401873e-07 6.397405208435979e-07
6.139885278202327e-07 6.139885278184075e-07
5.810093917559614e-07 6.452869243945764e-07
6.053773088894006e-07 6.723528898392386e-07
6.139885278202327e-07 6.139885278184075e-07
5.898109391057271e-07 5.898109390599237e-07
5.581310970020265e-07 6.198759741050336e-07
5.810093917559614e-07 6.452869243945764e-07
5.898109391057271e-07 5.898109390599237e-07
5.670553983709870e-07 5.670553983717236e-07
5.365983109898898e-07 5.959598055809678e-07
5.581310970020265e-07 6.198759741050336e-07
5.670553983709870e-07 5.670553983717236e-07
5.455923079550877e-07 5.455923079526107e-07
5.162884365771232e-07 5.734021442591741e-07
5.365983109898898e-07 5.959598055809678e-07
5.455923079550877e-07 5.455923079526107e-07
5.253105963543154e-07 5.253105963511623e-07
4.970963961794191e-07 5.520862100156899e-07
5.162884365771232e-07 5.734021442591741e-07
5.253105963543154e-07 5.253105963511623e-07
5.061142862983841e-07 5.061142862863981e-07
4.789313877535855e-07 5.319111006750671e-07
4.970963961794191e-07 5.520862100156899e-07
5.061142862983841e-07 5.061142862863981e-07
4.879197435179316e-07 4.879197435607639e-07
4.617142843657930e-07 5.127888960121704e-07
4.789313877535855e-07 5.319111006750671e-07
4.879197435179316e-07 4.879197435607639e-07
4.706534868219713e-07 4.706534868063451e-07
4.453755630172180e-07 4.946423523658541e-07
4.617142843657930e-07 5.127888960121704e-07
4.706534868219713e-07 4.706534868063451e-07
4.542504483329839e-07 4.542504483274139e-07
4.298536596362366e-07 4.774030726633495e-07
4.453755630172180e-07 4.946423523658541e-07
4.542504483329839e-07 4.542504483274139e-07
4.386525918155385e-07 4.386525918617434e-07
4.150936622062348e-07 4.610100531491549e-07
4.298536596362366e-07 4.774030726633495e-07
4.386525918155385e-07 4.386525918617434e-07
4.238078114945565e-07 4.238078114992427e-07
4.010462690186071e-07 4.454085244872939e-07
4.150936622062348e-07 4.610100531491549e-07
4.238078114945565e-07 4.238078114992427e-07
4.096690495720250e-07 4.096690495910345e-07
3.876669543336516e-07 4.305490247494967e-07
4.010462690186071e-07 4.454085244872939e-07
4.096690495720250e-07 4.096690495910345e-07
3.961935851662221e-07 3.961935851768273e-07
3.749152953027378e-07 4.163866510116907e-07
3.876669543336516e-07 4.305490247494967e-07
3.961935851662221e-07 3.961935851768273e-07
3.833424561796204e-07 3.833424561774688e-07
3.627544254693015e-07 4.028804514771101e-07
3.749152953027378e-07 4.163866510116907e-07
3.833424561796204e-07 3.833424561774688e-07
3.710799851000036e-07 3.710799850970518e-07
3.511505858985778e-07 3.899929272270893e-07
3.627544254693015e-07 4.028804514771101e-07
3.710799851000036e-07 3.710799850970518e-07
3.593733868420488e-07 3.593733868402376e-07
3.400727543808682e-07 3.776896198310551e-07
3.511505858985778e-07 3.899929272270893e-07
3.593733868420488e-07 3.593733868402376e-07
3.481924408355524e-07 3.481924408348472e-07
3.294923350609642e-07 3.659387662432499e-07
3.400727543808682e-07 3.776896198310551e-07
3.481924408355524e-07 3.481924408348472e-07
3.375092142746449e-07 3.375092142789864e-07
3.193828968635838e-07 3.547110085068725e-07
3.294923350609642e-07 3.659387662432499e-07
3.375092142746449e-07 3.375092142789864e-07
3.272978271656871e-07 3.272978271594602e-07
3.097199507323332e-07 3.439791460387741e-07
3.193828968635838e-07 3.547110085068725e-07
3.272978271656871e-07 3.272978271594602e-07
3.175342493695610e-07 3.175342493728450e-07
3.004807583069858e-07 3.337179228256992e-07
3.097199507323332e-07 3.439791460387741e-07
3.175342493695610e-07 3.175342493728450e-07
3.081961261916255e-07 3.081961262066288e-07
2.916441662996870e-07 3.239038438264707e-07
3.004807583069858e-07 3.337179228256992e-07
3.081961261916255e-07 3.081961262066288e-07
2.992626251275148e-07 2.992626251502655e-07
2.831904617075289e-07 3.145150138900864e-07
2.916441662996870e-07 3.239038438264707e-07
2.992626251275148e-07 2.992626251502655e-07
2.907143018835887e-07 2.907143019011740e-07
2.751012451478073e-07 3.055309970348698e-07
2.831904617075289e-07 3.145150138900864e-07
2.907143018835887e-07 2.907143019011740e-07
2.825329817335088e-07 2.825329817465970e-07
2.673593186674838e-07 2.969326915580018e-07
2.751012451478073e-07 3.055309970348698e-07
2.825329817335088e-07 2.825329817465970e-07
2.747016542736298e-07 2.747016542817581e-07
2.599485857711015e-07 2.887022196068323e-07
2.673593186674838e-07 2.969326915580018e-07
2.747016542736298e-07 2.747016542817581e-07
2.672043793309925e-07 2.672043793328942e-07
2.528539628358157e-07 2.808228279959803e-07
2.599485857711015e-07 2.887022196068323e-07
2.672043793309925e-07 2.672043793328942e-07
2.600262025193311e-07 2.600262025223786e-07
2.460612988970139e-07 2.732788000087304e-07
2.528539628358157e-07 2.808228279959803e-07
2.600262025193311e-07 2.600262025223786e-07
2.531530796477308e-07 2.531530796452596e-07
2.395573044398557e-07 2.660553750419325e-07
2.460612988970139e-07 2.732788000087304e-07
2.531530796477308e-07 2.531530796452596e-07
2.465718078947452e-07 2.465718078981434e-07
2.333294859380949e-07 2.591386773209688e-07
2.395573044398557e-07 2.660553750419325e-07
2.465718078947452e-07 2.465718078981434e-07
2.402699641595369e-07 2.402699641700790e-07
2.273660877348982e-07 2.525156501332447e-07
2.333294859380949e-07 2.591386773209688e-07
2.402699641595369e-07 2.402699641700790e-07
2.342358483647961e-07 2.342358483747683e-07
2.216560382324810e-07 2.461739968881327e-07
2.273660877348982e-07 2.525156501332447e-07
2.342358483647961e-07 2.342358483747683e-07
2.284584323457672e-07 2.284584323548498e-07
2.161889019509519e-07 2.401021271774343e-07
2.216560382324810e-07 2.461739968881327e-07
6.592958412247297e-07 7.322440342124681e-07
6.314053068889511e-07 7.012634743576725e-07
5.938333681086763e-07 7.333597670199829e-07
6.200623030282811e-07 7.657604305375918e-07
6.314053068889511e-07 7.012634743576725e-07
6.053773088894006e-07 6.723528898392386e-07
5.693554847795214e-07 7.031243889719337e-07
5.938333681086763e-07 7.333597670199829e-07
6.053773088894006e-07 6.723528898392386e-07
5.810093917559614e-07 6.452869243945764e-07
5.464384917621165e-07 6.748184879533554e-07
5.693554847795214e-07 7.031243889719337e-07
5.810093917559614e-07 6.452869243945764e-07
5.581310970020265e-07 6.198759741050336e-07
5.249222130150673e-07 6.482436689260188e-07
5.464384917621165e-07 6.748184879533554e-07
5.581310970020265e-07 6.198759741050336e-07
5.365983109898898e-07 5.959598055809678e-07
5.046711936851267e-07 6.232322806434609e-07
5.249222130150673e-07 6.482436689260188e-07
5.365983109898898e-07 5.959598055809678e-07
5.162884365771232e-07 5.734021442591741e-07
4.855701844449610e-07 5.996417502242081e-07
5.046711936851267e-07 6.232322806434609e-07
5.162884365771232e-07 5.734021442591741e-07
4.970963961794191e-07 5.520862100156899e-07
4.675203952416237e-07 5.773499084905280e-07
4.855701844449610e-07 5.996417502242081e-07
4.970963961794191e-07 5.520862100156899e-07
4.789313877535855e-07 5.319111006750671e-07
4.504364514277175e-07 5.562512031103061e-07
4.675203952416237e-07 5.773499084905280e-07
4.789313877535855e-07 5.319111006750671e-07
4.617142843657930e-07 5.127888960121704e-07
4.342439518171775e-07 5.362536662931152e-07
4.504364514277175e-07 5.562512031103061e-07
4.617142843657930e-07 5.127888960121704e-07
4.453755630172180e-07 4.946423523658541e-07
4.188775230474282e-07 5.172765016157665e-07
4.342439518171775e-07 5.362536662931152e-07
4.453755630172180e-07 4.946423523658541e-07
4.298536596362366e-07 4.774030726633495e-07
4.042792740895425e-07 4.992481685602539e-07
4.188775230474282e-07 5.172765016157665e-07
4.298536596362366e-07 4.774030726633495e-07
4.150936622062348e-07 4.610100531491549e-07
3.903975677192771e-07 4.821048612556614e-07
4.042792740895425e-07 4.992481685602539e-07
4.150936622062348e-07 4.610100531491549e-07
4.010462690186071e-07 4.454085244872939e-07
3.771860417197639e-07 4.657892961207805e-07
3.903975677192771e-07 4.821048612556614e-07
4.010462690186071e-07 4.454085244872939e-07
3.876669543336516e-07 4.305490247494967e-07
3.646028242403578e-07 4.502497414823435e-07
3.771860417197639e-07 4.657892961207805e-07
3.876669543336516e-07 4.305490247494967e-07
3.749152953027378e-07 4.163866510116907e-07
3.526099013901354e-07 4.354392346576065e-07
3.646028242403578e-07 4.502497414823435e-07
3.749152953027378e-07 4.163866510116907e-07
3.627544254693015e-07 4.028804514771101e-07
3.411726032777459e-07 4.213149460403601e-07
3.526099013901354e-07 4.354392346576065e-07
3.627544254693015e-07 4.028804514771101e-07
3.511505858985778e-07 3.899929272270893e-07
3.302591820606344e-07 4.078376575006763e-07
3.411726032777459e-07 4.213149460403601e-07
3.511505858985778e-07 3.899929272270893e-07
3.400727543808682e-07 3.776896198310551e-07
3.198404633788851e-07 3.949713311565547e-07
3.302591820606344e-07 4.078376575006763e-07
3.400727543808682e-07 3.776896198310551e-07
3.294923350609642e-07 3.659387662432499e-07
3.098895545161636e-07 3.826827485235741e-07
3.198404633788851e-07 3.949713311565547e-07
3.294923350609642e-07 3.659387662432499e-07
3.193828968635838e-07 3.547110085068725e-07
3.003815982925565e-07 3.709412064589430e-07
3.098895545161636e-07 3.826827485235741e-07
3.193828968635838e-07 3.547110085068725e-07
3.097199507323332e-07 3.439791460387741e-07
2.912935639893818e-07 3.597182581542741e-07
3.003815982925565e-07 3.709412064589430e-07
3.097199507323332e-07 3.439791460387741e-07
3.004807583069858e-07 3.337179228256992e-07
2.826040670154972e-07 3.489874909019393e-07
2.912935639893818e-07 3.597182581542741e-07
3.004807583069858e-07 3.337179228256992e-07
2.916441662996870e-07 3.239038438264707e-07
2.742932134702128e-07 3.387243333709129e-07
2.826040670154972e-07 3.489874909019393e-07
2.916441662996870e-07 3.239038438264707e-07
2.831904617075289e-07 3.145150138900864e-07
2.663424640018484e-07 3.289058877964468e-07
2.742932134702128e-07 3.387243333709129e-07
2.831904617075289e-07 3.145150138900864e-07
2.751012451478073e-07 3.055309970348698e-07
2.587345145272419e-07 3.195107822246355e-07
2.663424640018484e-07 3.289058877964468e-07
2.751012451478073e-07 3.055309970348698e-07
2.673593186674838e-07 2.969326915580018e-07
2.514531907105529e-07 3.105190404686192e-07
2.587345145272419e-07 3.195107822246355e-07
2.673593186674838e-07 2.969326915580018e-07
2.599485857711015e-07 2.887022196068323e-07
2.444833542960479e-07 3.019119659359668e-07
2.514531907105529e-07 3.105190404686192e-07
2.599485857711015e-07 2.887022196068323e-07
2.528539628358157e-07 2.808228279959803e-07
2.378108194080026e-07 2.936720385145129e-07
2.444833542960479e-07 3.019119659359668e-07
2.528539628358157e-07 2.808228279959803e-07
2.460612988970139e-07 2.732788000087304e-07
2.314222774053682e-07 2.857828217607335e-07
2.378108194080026e-07 2.936720385145129e-07
2.460612988970139e-07 2.732788000087304e-07
2.395573044398557e-07 2.660553750419325e-07
2.253052296203178e-07 2.782288794843144e-07
2.314222774053682e-07 2.857828217607335e-07
2.395573044398557e-07 2.660553750419325e-07
2.333294859380949e-07 2.591386773209688e-07
2.194479261851065e-07 2.709957006486104e-07
2.253052296203178e-07 2.782288794843144e-07
2.333294859380949e-07 2.591386773209688e-07
2.273660877348982e-07 2.525156501332447e-07
2.138393109812656e-07 2.640696307195613e-07
2.194479261851065e-07 2.709957006486104e-07
2.273660877348982e-07 2.525156501332447e-07
2.216560382324810e-07 2.461739968881327e-07
2.084689714303723e-07 2.574378103868557e-07
2.138393109812656e-07 2.640696307195613e-07
2.216560382324810e-07 2.461739968881327e-07
2.161889019509519e-07 2.401021271774343e-07
2.033270929874222e-07 2.510881184691580e-07
2.084689714303723e-07 2.574378103868557e-07
6.200623030282811e-07 7.657604305375918e-07
5.938333681086763e-07 7.333597670199829e-07
5.546327232847871e-07 7.634448147634776e-07
5.791278059371487e-07 7.971752030767627e-07
5.938333681086763e-07 7.333597670199829e-07
5.693554847795214e-07 7.031243889719337e-07
5.317723833929239e-07 7.319684132391902e-07
5.546327232847871e-07 7.634448147634776e-07
5.693554847795214e-07 7.031243889719337e-07
5.464384917621165e-07 6.748184879533554e-07
5.103693967545674e-07 7.025006774132089e-07
5.317723833929239e-07 7.319684132391902e-07
5.464384917621165e-07 6.748184879533554e-07
5.249222130150673e-07 6.482436689260188e-07
4.902743105369009e-07 6.748351269496578e-07
5.103693967545674e-07 7.025006774132089e-07
5.249222130150673e-07 6.482436689260188e-07
5.046711936851267e-07 6.232322806434609e-07
4.713607128216085e-07 6.487972425918729e-07
4.902743105369009e-07 6.748351269496578e-07
5.046711936851267e-07 6.232322806434609e-07
4.855701844449610e-07 5.996417502242081e-07
4.535210309753979e-07 6.242385957595373e-07
4.713607128216085e-07 6.487972425918729e-07
4.855701844449610e-07 5.996417502242081e-07
4.675203952416237e-07 5.773499084905280e-07
4.366630439598291e-07 6.010319932291310e-07
4.535210309753979e-07 6.242385957595373e-07
4.675203952416237e-07 5.773499084905280e-07
4.504364514277175e-07 5.562512031103061e-07
4.207070465036450e-07 5.790675397782222e-07
4.366630439598291e-07 6.010319932291310e-07
4.504364514277175e-07 5.562512031103061e-07
4.342439518171775e-07 5.362536662931152e-07
4.055835729690213e-07 5.582494829514682e-07
4.207070465036450e-07 5.790675397782222e-07
4.342439518171775e-07 5.362536662931152e-07
4.188775230474282e-07 5.172765016157665e-07
3.912315831834579e-07 5.384937016861507e-07
4.055835729690213e-07 5.582494829514682e-07
4.188775230474282e-07 5.172765016157665e-07
4.042792740895425e-07 4.992481685602539e-07
3.775970207454925e-07 5.197257122781083e-07
3.912315831834579e-07 5.384937016861507e-07
4.042792740895425e-07 4.992481685602539e-07
3.903975677192771e-07 4.821048612556614e-07
3.646316672042746e-07 5.018790844279247e-07
3.775970207454925e-07 5.197257122781083e-07
3.903975677192771e-07 4.821048612556614e-07
3.771860417197639e-07 4.657892961207805e-07
3.522922283158034e-07 4.848941790344779e-07
3.646316672042746e-07 5.018790844279247e-07
3.771860417197639e-07 4.657892961207805e-07
3.646028242403578e-07 4.502497414823435e-07
3.405396023617800e-07 4.687171376190326e-07
3.522922283158034e-07 4.848941790344779e-07
3.646028242403578e-07 4.502497414823435e-07
3.526099013901354e-07 4.354392346576065e-07
3.293382893745555e-07 4.532990671502405e-07
3.405396023617800e-07 4.687171376190326e-07
3.526099013901354e-07 4.354392346576065e-07
3.411726032777459e-07 4.213149460403601e-07
3.186559117370237e-07 4.385953780351760e-07
3.293382893745555e-07 4.532990671502405e-07
3.411726032777459e-07 4.213149460403601e-07
3.302591820606344e-07 4.078376575006763e-07
3.084628203444010e-07 4.245652408776092e-07
3.186559117370237e-07 4.385953780351760e-07
3.302591820606344e-07 4.078376575006763e-07
3.198404633788851e-07 3.949713311565547e-07
2.987317689355314e-07 4.111711372941382e-07
3.084628203444010e-07 4.245652408776092e-07
3.198404633788851e-07 3.949713311565547e-07
3.098895545161636e-07 3.826827485235741e-07
2.894376418343955e-07 3.983784844806784e-07
2.987317689355314e-07 4.111711372941382e-07
3.098895545161636e-07 3.826827485235741e-07
3.003815982925565e-07 3.709412064589430e-07
2.805572243806937e-07 3.861553183513692e-07
2.894376418343955e-07 3.983784844806784e-07
3.003815982925565e-07 3.709412064589430e-07
2.912935639893818e-07 3.597182581542741e-07
2.720690072662222e-07 3.744720240406350e-07
2.805572243806937e-07 3.861553183513692e-07
2.912935639893818e-07 3.597182581542741e-07
2.826040670154972e-07 3.489874909019393e-07
2.639530185403502e-07 3.633011043902554e-07
2.720690072662222e-07 3.744720240406350e-07
2.826040670154972e-07 3.489874909019393e-07
2.742932134702128e-07 3.387243333709129e-07
2.561906783181889e-07 3.526169792577057e-07
2.639530185403502e-07 3.633011043902554e-07
2.742932134702128e-07 3.387243333709129e-07
2.663424640018484e-07 3.289058877964468e-07
2.487646716932778e-07 3.423958108767310e-07
2.561906783181889e-07 3.526169792577057e-07
2.663424640018484e-07 3.289058877964468e-07
2.587345145272419e-07 3.195107822246355e-07
2.416588374746287e-07 3.326153500851031e-07
2.487646716932778e-07 3.423958108767310e-07
2.587345145272419e-07 3.195107822246355e-07
2.514531907105529e-07 3.105190404686192e-07
2.348580693190198e-07 3.232548006784088e-07
2.416588374746287e-07 3.326153500851031e-07
2.514531907105529e-07 3.105190404686192e-07
2.444833542960479e-07 3.019119659359668e-07
2.283482286784440e-07 3.142946987898983e-07
2.348580693190198e-07 3.232548006784088e-07
2.444833542960479e-07 3.019119659359668e-07
2.378108194080026e-07 2.936720385145129e-07
2.221160663646516e-07 3.057168051969022e-07
2.283482286784440e-07 3.142946987898983e-07
2.378108194080026e-07 2.936720385145129e-07
2.314222774053682e-07 2.857828217607335e-07
2.161491525055431e-07 2.975040089414897e-07
2.221160663646516e-07 3.057168051969022e-07
2.314222774053682e-07 2.857828217607335e-07
2.253052296203178e-07 2.782288794843144e-07
2.104358136320450e-07 2.896402404064064e-07
2.161491525055431e-07 2.975040089414897e-07
2.253052296203178e-07 2.782288794843144e-07
2.194479261851065e-07 2.709957006486104e-07
2.049650757402475e-07 2.821103930170082e-07
2.104358136320450e-07 2.896402404064064e-07
2.194479261851065e-07 2.709957006486104e-07
2.138393109812656e-07 2.640696307195613e-07
1.997266125247463e-07 2.749002519179486e-07
2.049650757402475e-07 2.821103930170082e-07
2.138393109812656e-07 2.640696307195613e-07
2.084689714303723e-07 2.574378103868557e-07
1.947106990083275e-07 2.679964301439251e-07
1.997266125247463e-07 2.749002519179486e-07
2.084689714303723e-07 2.574378103868557e-07
2.033270929874222e-07 2.510881184691580e-07
1.899081684508491e-07 2.613863093291720e-07
1.947106990083275e-07 2.679964301439251e-07
5.546327232847871e-07 7.634448147634776e-07
5.317723833929239e-07 7.319684132391902e-07
4.927310850527311e-07 7.588040139260286e-07
5.139113040005831e-07 7.914339684293740e-07
5.317723833929239e-07 7.319684132391902e-07
5.103693967545674e-07 7.025006774132089e-07
4.729008076647643e-07 7.282560512140550e-07
4.927310850527311e-07 7.588040139260286e-07
5.103693967545674e-07 7.025006774132089e-07
4.902743105369009e-07 6.748351269496578e-07
4.542820764876638e-07 6.995761851775619e-07
4.729008076647643e-07 7.282560512140550e-07
4.902743105369009e-07 6.748351269496578e-07
4.713607128216085e-07 6.487972425918729e-07
4.367578342879510e-07 6.725835835501369e-07
4.542820764876638e-07 6.995761851775619e-07
4.713607128216085e-07 6.487972425918729e-07
4.535210309753979e-07 6.242385957595373e-07
4.202284653192627e-07 6.471244222669943e-07
4.367578342879510e-07 6.725835835501369e-07
4.535210309753979e-07 6.242385957595373e-07
4.366630439598291e-07 6.010319932291310e-07
4.046085647582554e-07 6.230668694707354e-07
4.202284653192627e-07 6.471244222669943e-07
4.366630439598291e-07 6.010319932291310e-07
4.207070465036450e-07 5.790675397782222e-07
3.898243140434479e-07 6.002970133007675e-07
4.046085647582554e-07 6.230668694707354e-07
4.207070465036450e-07 5.790675397782222e-07
4.055835729690213e-07 5.582494829514682e-07
3.758113740844511e-07 5.787155967668689e-07
3.898243140434479e-07 6.002970133007675e-07
4.055835729690213e-07 5.582494829514682e-07
3.912315831834579e-07 5.384937016861507e-07
3.625132064681512e-07 5.582354167849694e-07
3.758113740844511e-07 5.787155967668689e-07
3.912315831834579e-07 5.384937016861507e-07
3.775970207454925e-07 5.197257122781083e-07
3.498797391243648e-07 5.387792591284804e-07
3.625132064681512e-07 5.582354167849694e-07
3.775970207454925e-07 5.197257122781083e-07
3.646316672042746e-07 5.018790844279247e-07
3.378663058372520e-07 5.202782571901376e-07
3.498797391243648e-07 5.387792591284804e-07