<?xml version="1.0" ?> 
<!-- 
# vtk DataFile Version 3.0
-->
<VTKFile type="UnstructuredGrid" version="0.1" compressor="vtkZLibDataCompressor" byte_order="LittleEndian">
  <UnstructuredGrid>
    <FieldData>
      <DataArray type="Float64" Name="TIME" NumberOfTuples="1" format="ascii">
6.000000000000000e+02 
      </DataArray>
    </FieldData>

    <Piece NumberOfPoints="3840" NumberOfCells="960" >
      <Points>
        <DataArray type="Float64" NumberOfComponents="3" format="ascii">
4.808326112068521e-01 4.808326112068521e-01 0.000000000000000e+00
4.879036790187176e-01 4.879036790187176e-01 0.000000000000000e+00
4.617001183876121e-01 5.127699295794018e-01 0.000000000000000e+00
4.550088123240235e-01 5.053384813246281e-01 0.000000000000000e+00
4.879036790187176e-01 4.879036790187176e-01 0.000000000000000e+00
4.949747468305831e-01 4.949747468305831e-01 0.000000000000000e+00
4.683914244512006e-01 5.202013778341755e-01 0.000000000000000e+00
4.617001183876121e-01 5.127699295794018e-01 0.000000000000000e+00
4.949747468305831e-01 4.949747468305831e-01 0.000000000000000e+00
5.020458146424486e-01 5.020458146424486e-01 0.000000000000000e+00
4.750827305147892e-01 5.276328260889497e-01 0.000000000000000e+00
4.683914244512006e-01 5.202013778341755e-01 0.000000000000000e+00
5.020458146424486e-01 5.020458146424486e-01 0.000000000000000e+00
5.091168824543140e-01 5.091168824543140e-01 0.000000000000000e+00
4.817740365783779e-01 5.350642743437237e-01 0.000000000000000e+00
4.750827305147892e-01 5.276328260889497e-01 0.000000000000000e+00
5.091168824543140e-01 5.091168824543140e-01 0.000000000000000e+00
5.161879502661796e-01 5.161879502661796e-01 0.000000000000000e+00
4.884653426419664e-01 5.424957225984977e-01 0.000000000000000e+00
4.817740365783779e-01 5.350642743437237e-01 0.000000000000000e+00
5.161879502661796e-01 5.161879502661796e-01 0.000000000000000e+00
5.232590180780450e-01 5.232590180780450e-01 0.000000000000000e+00
4.951566487055550e-01 5.499271708532714e-01 0.000000000000000e+00
4.884653426419664e-01 5.424957225984977e-01 0.000000000000000e+00
5.232590180780450e-01 5.232590180780450e-01 0.000000000000000e+00
5.303300858899104e-01 5.303300858899104e-01 0.000000000000000e+00
5.018479547691433e-01 5.573586191080454e-01 0.000000000000000e+00
4.951566487055550e-01 5.499271708532714e-01 0.000000000000000e+00
5.303300858899104e-01 5.303300858899104e-01 0.000000000000000e+00
5.374011537017759e-01 5.374011537017759e-01 0.000000000000000e+00
5.085392608327320e-01 5.647900673628193e-01 0.000000000000000e+00
5.018479547691433e-01 5.573586191080454e-01 0.000000000000000e+00
5.374011537017759e-01 5.374011537017759e-01 0.000000000000000e+00
5.444722215136414e-01 5.444722215136414e-01 0.000000000000000e+00
5.152305668963206e-01 5.722215156175933e-01 0.000000000000000e+00
5.085392608327320e-01 5.647900673628193e-01 0.000000000000000e+00
5.444722215136414e-01 5.444722215136414e-01 0.000000000000000e+00
5.515432893255069e-01 5.515432893255069e-01 0.000000000000000e+00
5.219218729599092e-01 5.796529638723673e-01 0.000000000000000e+00
5.152305668963206e-01 5.722215156175933e-01 0.000000000000000e+00
5.515432893255069e-01 5.515432893255069e-01 0.000000000000000e+00
5.586143571373723e-01 5.586143571373723e-01 0.000000000000000e+00
5.286131790234979e-01 5.870844121271411e-01 0.000000000000000e+00
5.219218729599092e-01 5.796529638723673e-01 0.000000000000000e+00
5.586143571373723e-01 5.586143571373723e-01 0.000000000000000e+00
5.656854249492378e-01 5.656854249492378e-01 0.000000000000000e+00
5.353044850870865e-01 5.945158603819153e-01 0.000000000000000e+00
5.286131790234979e-01 5.870844121271411e-01 0.000000000000000e+00
5.656854249492378e-01 5.656854249492378e-01 0.000000000000000e+00
5.727564927611033e-01 5.727564927611033e-01 0.000000000000000e+00
5.419957911506751e-01 6.019473086366893e-01 0.000000000000000e+00
5.353044850870865e-01 5.945158603819153e-01 0.000000000000000e+00
5.727564927611033e-01 5.727564927611033e-01 0.000000000000000e+00
5.798275605729688e-01 5.798275605729688e-01 0.000000000000000e+00
5.486870972142637e-01 6.093787568914633e-01 0.000000000000000e+00
5.419957911506751e-01 6.019473086366893e-01 0.000000000000000e+00
5.798275605729688e-01 5.798275605729688e-01 0.000000000000000e+00
5.868986283848342e-01 5.868986283848342e-01 0.000000000000000e+00
5.553784032778522e-01 6.168102051462370e-01 0.000000000000000e+00
5.486870972142637e-01 6.093787568914633e-01 0.000000000000000e+00
5.868986283848342e-01 5.868986283848342e-01 0.000000000000000e+00
5.939696961966997e-01 5.939696961966997e-01 0.000000000000000e+00
5.620697093414407e-01 6.242416534010107e-01 0.000000000000000e+00
5.553784032778522e-01 6.168102051462370e-01 0.000000000000000e+00
5.939696961966997e-01 5.939696961966997e-01 0.000000000000000e+00
6.010407640085651e-01 6.010407640085651e-01 0.000000000000000e+00
5.687610154050292e-01 6.316731016557846e-01 0.000000000000000e+00
5.620697093414407e-01 6.242416534010107e-01 0.000000000000000e+00
6.010407640085651e-01 6.010407640085651e-01 0.000000000000000e+00
6.081118318204307e-01 6.081118318204307e-01 0.000000000000000e+00
5.754523214686179e-01 6.391045499105587e-01 0.000000000000000e+00
5.687610154050292e-01 6.316731016557846e-01 0.000000000000000e+00
6.081118318204307e-01 6.081118318204307e-01 0.000000000000000e+00
6.151828996322961e-01 6.151828996322961e-01 0.000000000000000e+00
5.821436275322065e-01 6.465359981653327e-01 0.000000000000000e+00
5.754523214686179e-01 6.391045499105587e-01 0.000000000000000e+00
6.151828996322961e-01 6.151828996322961e-01 0.000000000000000e+00
6.222539674441616e-01 6.222539674441616e-01 0.000000000000000e+00
5.888349335957950e-01 6.539674464201066e-01 0.000000000000000e+00
5.821436275322065e-01 6.465359981653327e-01 0.000000000000000e+00
6.222539674441616e-01 6.222539674441616e-01 0.000000000000000e+00
6.293250352560270e-01 6.293250352560270e-01 0.000000000000000e+00
5.955262396593837e-01 6.613988946748806e-01 0.000000000000000e+00
5.888349335957950e-01 6.539674464201066e-01 0.000000000000000e+00
6.293250352560270e-01 6.293250352560270e-01 0.000000000000000e+00
6.363961030678926e-01 6.363961030678926e-01 0.000000000000000e+00
6.022175457229723e-01 6.688303429296548e-01 0.000000000000000e+00
5.955262396593837e-01 6.613988946748806e-01 0.000000000000000e+00
6.363961030678926e-01 6.363961030678926e-01 0.000000000000000e+00
6.434671708797580e-01 6.434671708797580e-01 0.000000000000000e+00
6.089088517865610e-01 6.762617911844283e-01 0.000000000000000e+00
6.022175457229723e-01 6.688303429296548e-01 0.000000000000000e+00
6.434671708797580e-01 6.434671708797580e-01 0.000000000000000e+00
6.505382386916235e-01 6.505382386916235e-01 0.000000000000000e+00
6.156001578501494e-01 6.836932394392025e-01 0.000000000000000e+00
6.089088517865610e-01 6.762617911844283e-01 0.000000000000000e+00
6.505382386916235e-01 6.505382386916235e-01 0.000000000000000e+00
6.576093065034889e-01 6.576093065034889e-01 0.000000000000000e+00
6.222914639137380e-01 6.911246876939762e-01 0.000000000000000e+00
6.156001578501494e-01 6.836932394392025e-01 0.000000000000000e+00
6.576093065034889e-01 6.576093065034889e-01 0.000000000000000e+00
6.646803743153545e-01 6.646803743153545e-01 0.000000000000000e+00
6.289827699773265e-01 6.985561359487501e-01 0.000000000000000e+00
6.222914639137380e-01 6.911246876939762e-01 0.000000000000000e+00
6.646803743153545e-01 6.646803743153545e-01 0.000000000000000e+00
6.717514421272199e-01 6.717514421272199e-01 0.000000000000000e+00
6.356740760409152e-01 7.059875842035243e-01 0.000000000000000e+00
6.289827699773265e-01 6.985561359487501e-01 0.000000000000000e+00
6.717514421272199e-01 6.717514421272199e-01 0.000000000000000e+00
6.788225099390854e-01 6.788225099390854e-01 0.000000000000000e+00
6.423653821045038e-01 7.134190324582982e-01 0.000000000000000e+00
6.356740760409152e-01 7.059875842035243e-01 0.000000000000000e+00
6.788225099390854e-01 6.788225099390854e-01 0.000000000000000e+00
6.858935777509508e-01 6.858935777509508e-01 0.000000000000000e+00
6.490566881680925e-01 7.208504807130721e-01 0.000000000000000e+00
6.423653821045038e-01 7.134190324582982e-01 0.000000000000000e+00
6.858935777509508e-01 6.858935777509508e-01 0.000000000000000e+00
6.929646455628163e-01 6.929646455628163e-01 0.000000000000000e+00
6.557479942316810e-01 7.282819289678460e-01 0.000000000000000e+00
6.490566881680925e-01 7.208504807130721e-01 0.000000000000000e+00
6.929646455628163e-01 6.929646455628163e-01 0.000000000000000e+00
7.000357133746818e-01 7.000357133746818e-01 0.000000000000000e+00
6.624393002952698e-01 7.357133772226200e-01 0.000000000000000e+00
6.557479942316810e-01 7.282819289678460e-01 0.000000000000000e+00
7.000357133746818e-01 7.000357133746818e-01 0.000000000000000e+00
7.071067811865475e-01 7.071067811865475e-01 0.000000000000000e+00
6.691306063588582e-01 7.431448254773941e-01 0.000000000000000e+00
6.624393002952698e-01 7.357133772226200e-01 0.000000000000000e+00
4.550088123240235e-01 5.053384813246281e-01 0.000000000000000e+00
4.617001183876121e-01 5.127699295794018e-01 0.000000000000000e+00
4.342310698243877e-01 5.362307134053097e-01 0.000000000000000e+00
4.279378659138894e-01 5.284592537907402e-01 0.000000000000000e+00
4.617001183876121e-01 5.127699295794018e-01 0.000000000000000e+00
4.683914244512006e-01 5.202013778341755e-01 0.000000000000000e+00
4.405242737348862e-01 5.440021730198799e-01 0.000000000000000e+00
4.342310698243877e-01 5.362307134053097e-01 0.000000000000000e+00
4.683914244512006e-01 5.202013778341755e-01 0.000000000000000e+00
4.750827305147892e-01 5.276328260889497e-01 0.000000000000000e+00
4.468174776453844e-01 5.517736326344492e-01 0.000000000000000e+00
4.405242737348862e-01 5.440021730198799e-01 0.000000000000000e+00
4.750827305147892e-01 5.276328260889497e-01 0.000000000000000e+00
4.817740365783779e-01 5.350642743437237e-01 0.000000000000000e+00
4.531106815558830e-01 5.595450922490189e-01 0.000000000000000e+00
4.468174776453844e-01 5.517736326344492e-01 0.000000000000000e+00
[...]
  <PointData>
        <DataArray type="Float64" Name="ale-displacement" NumberOfComponents="2" format="ascii">
2.284584323457672e-07 2.284584323548498e-07
2.229273132583595e-07 2.229273132737150e-07
2.109548347025412e-07 2.342891077050000e-07
2.161889019509519e-07 2.401021271774343e-07
2.229273132583595e-07 2.229273132737150e-07
2.176326705315276e-07 2.176326705411457e-07
2.059445435932860e-07 2.287246172849526e-07
2.109548347025412e-07 2.342891077050000e-07
2.176326705315276e-07 2.176326705411457e-07
2.125652270090231e-07 2.125652270200600e-07
2.011492498372925e-07 2.233989056628813e-07
2.059445435932860e-07 2.287246172849526e-07
2.125652270090231e-07 2.125652270200600e-07
2.077162128863976e-07 2.077162128974698e-07
1.965606547861458e-07 2.183027560253324e-07
2.011492498372925e-07 2.233989056628813e-07
2.077162128863976e-07 2.077162128974698e-07
2.030773329138937e-07 2.030773329294955e-07
1.921709087762764e-07 2.134274501752990e-07
1.965606547861458e-07 2.183027560253324e-07
2.030773329138937e-07 2.030773329294955e-07
1.986407359435402e-07 1.986407359602966e-07
1.879725824475564e-07 2.087647366332078e-07
1.921709087762764e-07 2.134274501752990e-07
1.986407359435402e-07 1.986407359602966e-07
1.943989871906350e-07 1.943989872125376e-07
1.839586404246205e-07 2.043068016460917e-07
1.879725824475564e-07 2.087647366332078e-07
1.943989871906350e-07 1.943989872125376e-07
1.903450422159616e-07 1.903450422316435e-07
1.801224165845701e-07 2.000462415642423e-07
1.839586404246205e-07 2.043068016460917e-07
1.903450422159616e-07 1.903450422316435e-07
1.864722233526925e-07 1.864722233600641e-07
1.764575921943256e-07 1.959760384099743e-07
1.801224165845701e-07 2.000462415642423e-07
1.864722233526925e-07 1.864722233600641e-07
1.827741976013728e-07 1.827741976050786e-07
1.729581742659743e-07 1.920895360870205e-07
1.764575921943256e-07 1.959760384099743e-07
1.827741976013728e-07 1.827741976050786e-07
1.792449563703102e-07 1.792449563783975e-07
1.696184770836622e-07 1.883804199078424e-07
1.729581742659743e-07 1.920895360870205e-07
1.792449563703102e-07 1.792449563783975e-07
1.758787963649762e-07 1.758787963725852e-07
1.664331037793588e-07 1.848426956426023e-07
1.696184770836622e-07 1.883804199078424e-07
1.758787963649762e-07 1.758787963725852e-07
1.726703025357999e-07 1.726703025392606e-07
1.633969301968609e-07 1.814706722053584e-07
1.664331037793588e-07 1.848426956426023e-07
1.726703025357999e-07 1.726703025392606e-07
1.696143314514956e-07 1.696143314569893e-07
1.605050891316116e-07 1.782589439591668e-07
1.633969301968609e-07 1.814706722053584e-07
1.696143314514956e-07 1.696143314569893e-07
1.667059960608457e-07 1.667059960543875e-07
1.577529562824933e-07 1.752023746480997e-07
1.605050891316116e-07 1.782589439591668e-07
1.667059960608457e-07 1.667059960543875e-07
1.639406523460395e-07 1.639406523279331e-07
1.551361368769773e-07 1.722960833690775e-07
1.577529562824933e-07 1.752023746480997e-07
1.639406523460395e-07 1.639406523279331e-07
1.613138852388688e-07 1.613138852346987e-07
1.526504532287182e-07 1.695354302117863e-07
1.551361368769773e-07 1.722960833690775e-07
1.613138852388688e-07 1.613138852346987e-07
1.588214972936405e-07 1.588214972948590e-07
1.502919332319579e-07 1.669160036064184e-07
1.526504532287182e-07 1.695354302117863e-07
1.588214972936405e-07 1.588214972948590e-07
1.564594968126804e-07 1.564594967170861e-07
1.480567998296260e-07 1.644336080988508e-07
1.502919332319579e-07 1.669160036064184e-07
1.564594968126804e-07 1.564594967170861e-07
1.542240872224388e-07 1.542240872249566e-07
1.459414605271860e-07 1.620842539718666e-07
1.480567998296260e-07 1.644336080988508e-07
1.542240872224388e-07 1.542240872249566e-07
1.521116575554569e-07 1.521116575581205e-07
1.439424979897103e-07 1.598641456228545e-07
1.459414605271860e-07 1.620842539718666e-07
1.521116575554569e-07 1.521116575581205e-07
1.501187725961088e-07 1.501187726003700e-07
1.420566619405235e-07 1.577696729927442e-07
1.439424979897103e-07 1.598641456228545e-07
1.501187725961088e-07 1.501187726003700e-07
1.482421644911326e-07 1.482421644968315e-07
1.402808599078803e-07 1.557974013947484e-07
1.420566619405235e-07 1.577696729927442e-07
1.482421644911326e-07 1.482421644968315e-07
1.464787245278667e-07 1.464787245478103e-07
1.386121503294320e-07 1.539440637765956e-07
1.402808599078803e-07 1.557974013947484e-07
1.464787245278667e-07 1.464787245478103e-07
1.448254955801332e-07 1.448254955908527e-07
1.370477350628974e-07 1.522065521616015e-07
1.386121503294320e-07 1.539440637765956e-07
1.448254955801332e-07 1.448254955908527e-07
1.432796649072519e-07 1.432796648159610e-07
1.355849522021026e-07 1.505819100619543e-07
1.370477350628974e-07 1.522065521616015e-07
1.432796649072519e-07 1.432796648159610e-07
1.418385570686695e-07 1.418385570970838e-07
1.342212705940564e-07 1.490673260263262e-07
1.355849522021026e-07 1.505819100619543e-07
1.418385570686695e-07 1.418385570970838e-07
1.404996283827792e-07 1.404996284019244e-07
1.329542828918003e-07 1.476601262585860e-07
1.342212705940564e-07 1.490673260263262e-07
1.404996283827792e-07 1.404996284019244e-07
1.392604600798970e-07 1.392604600945642e-07
1.317817003904439e-07 1.463577688282535e-07
1.329542828918003e-07 1.476601262585860e-07
1.392604600798970e-07 1.392604600945642e-07
1.381187534166152e-07 1.381187534163810e-07
1.307013479860039e-07 1.451578376045974e-07
1.317817003904439e-07 1.463577688282535e-07
1.381187534166152e-07 1.381187534163810e-07
1.370723240508722e-07 1.370723240462333e-07
1.297111587431813e-07 1.440580367319960e-07
1.307013479860039e-07 1.451578376045974e-07
1.370723240508722e-07 1.370723240462333e-07
1.361190969206768e-07 1.361190969167349e-07
1.288091691085012e-07 1.430561855783652e-07
1.297111587431813e-07 1.440580367319960e-07
2.161889019509519e-07 2.401021271774343e-07
2.109548347025412e-07 2.342891077050000e-07
1.984044174440050e-07 2.450091214086927e-07
2.033270929874222e-07 2.510881184691580e-07
2.109548347025412e-07 2.342891077050000e-07
2.059445435932860e-07 2.287246172849526e-07
1.936922047469682e-07 2.391900255291778e-07
1.984044174440050e-07 2.450091214086927e-07
2.059445435932860e-07 2.287246172849526e-07
2.011492498372925e-07 2.233989056628813e-07
1.891821986762877e-07 2.336206342574674e-07
1.936922047469682e-07 2.391900255291778e-07
2.011492498372925e-07 2.233989056628813e-07
1.965606547861458e-07 2.183027560253324e-07
1.848665943345490e-07 2.282913088124526e-07
1.891821986762877e-07 2.336206342574674e-07
1.965606547861458e-07 2.183027560253324e-07
1.921709087762764e-07 2.134274501752990e-07
1.807380092883652e-07 2.231929321103191e-07
1.848665943345490e-07 2.282913088124526e-07
1.921709087762764e-07 2.134274501752990e-07
1.879725824475564e-07 2.087647366332078e-07
1.767894562357291e-07 2.183168749579959e-07
1.807380092883652e-07 2.231929321103191e-07
1.879725824475564e-07 2.087647366332078e-07
1.839586404246205e-07 2.043068016460917e-07
1.730143184177357e-07 2.136549657892292e-07
1.767894562357291e-07 2.183168749579959e-07
1.839586404246205e-07 2.043068016460917e-07
1.801224165845701e-07 2.000462415642423e-07
1.694063265804805e-07 2.091994623259217e-07
1.730143184177357e-07 2.136549657892292e-07
1.801224165845701e-07 2.000462415642423e-07
1.764575921943256e-07 1.959760384099743e-07
1.659595377105061e-07 2.049430251325875e-07
1.694063265804805e-07 2.091994623259217e-07
1.764575921943256e-07 1.959760384099743e-07
1.729581742659743e-07 1.920895360870205e-07
1.626683157801732e-07 2.008786936811222e-07
1.659595377105061e-07 2.049430251325875e-07
1.729581742659743e-07 1.920895360870205e-07
1.696184770836622e-07 1.883804199078424e-07
1.595273131734396e-07 1.969998639209774e-07
1.626683157801732e-07 2.008786936811222e-07
1.696184770836622e-07 1.883804199078424e-07
1.664331037793588e-07 1.848426956426023e-07
1.565314543358629e-07 1.933002677206998e-07
1.595273131734396e-07 1.969998639209774e-07
1.664331037793588e-07 1.848426956426023e-07
1.633969301968609e-07 1.814706722053584e-07
1.536759200752849e-07 1.897739531224686e-07
1.565314543358629e-07 1.933002677206998e-07
1.633969301968609e-07 1.814706722053584e-07
1.605050891316116e-07 1.782589439591668e-07
1.509561326599712e-07 1.864152671320232e-07
1.536759200752849e-07 1.897739531224686e-07
1.605050891316116e-07 1.782589439591668e-07
1.577529562824933e-07 1.752023746480997e-07
1.483677430900476e-07 1.832188385621801e-07
1.509561326599712e-07 1.864152671320232e-07
1.577529562824933e-07 1.752023746480997e-07
1.551361368769773e-07 1.722960833690775e-07
1.459066181770209e-07 1.801795630202725e-07
1.483677430900476e-07 1.832188385621801e-07
1.551361368769773e-07 1.722960833690775e-07
1.526504532287182e-07 1.695354302117863e-07
1.435688288432701e-07 1.772925881086045e-07
1.459066181770209e-07 1.801795630202725e-07
1.526504532287182e-07 1.695354302117863e-07
1.502919332319579e-07 1.669160036064184e-07
1.413506394211282e-07 1.745533001553396e-07
1.435688288432701e-07 1.772925881086045e-07
1.502919332319579e-07 1.669160036064184e-07
1.480567998296260e-07 1.644336080988508e-07
1.392484975863577e-07 1.719573121551116e-07
1.413506394211282e-07 1.745533001553396e-07
1.480567998296260e-07 1.644336080988508e-07
1.459414605271860e-07 1.620842539718666e-07
1.372590245123204e-07 1.695004512592150e-07
1.392484975863577e-07 1.719573121551116e-07
1.459414605271860e-07 1.620842539718666e-07
1.439424979897103e-07 1.598641456228545e-07
1.353790067142826e-07 1.671787484624798e-07
1.372590245123204e-07 1.695004512592150e-07
1.439424979897103e-07 1.598641456228545e-07
1.420566619405235e-07 1.577696729927442e-07
1.336053868406091e-07 1.649884280696523e-07
1.353790067142826e-07 1.671787484624798e-07
1.420566619405235e-07 1.577696729927442e-07
1.402808599078803e-07 1.557974013947484e-07
1.319352568380209e-07 1.629258985114514e-07
1.336053868406091e-07 1.649884280696523e-07
1.402808599078803e-07 1.557974013947484e-07
1.386121503294320e-07 1.539440637765956e-07
1.303658500869177e-07 1.609877429420112e-07
1.319352568380209e-07 1.629258985114514e-07
1.386121503294320e-07 1.539440637765956e-07
1.370477350628974e-07 1.522065521616015e-07
1.288945350872684e-07 1.591707110764577e-07
1.303658500869177e-07 1.609877429420112e-07
1.370477350628974e-07 1.522065521616015e-07
1.355849522021026e-07 1.505819100619543e-07
1.275188083769364e-07 1.574717112617000e-07
1.288945350872684e-07 1.591707110764577e-07
1.355849522021026e-07 1.505819100619543e-07
1.342212705940564e-07 1.490673260263262e-07
1.262362895026437e-07 1.558878031333334e-07
1.275188083769364e-07 1.574717112617000e-07
1.342212705940564e-07 1.490673260263262e-07
1.329542828918003e-07 1.476601262585860e-07
1.250447143006826e-07 1.544161903536368e-07
1.262362895026437e-07 1.558878031333334e-07
1.329542828918003e-07 1.476601262585860e-07
1.317817003904439e-07 1.463577688282535e-07
1.239419305730909e-07 1.530542148708539e-07
1.250447143006826e-07 1.544161903536368e-07
1.317817003904439e-07 1.463577688282535e-07
1.307013479860039e-07 1.451578376045974e-07
1.229258925133055e-07 1.517993495930730e-07
1.239419305730909e-07 1.530542148708539e-07
1.307013479860039e-07 1.451578376045974e-07
1.297111587431813e-07 1.440580367319960e-07
1.219946563169886e-07 1.506491937064108e-07
1.229258925133055e-07 1.517993495930730e-07
1.297111587431813e-07 1.440580367319960e-07
1.288091691085012e-07 1.430561855783652e-07
1.211463754964271e-07 1.496014666631626e-07
1.219946563169886e-07 1.506491937064108e-07
2.033270929874222e-07 2.510881184691580e-07
1.984044174440050e-07 2.450091214086927e-07
1.853103738828534e-07 2.550579864153876e-07
1.899081684508491e-07 2.613863093291720e-07
1.984044174440050e-07 2.450091214086927e-07
1.936922047469682e-07 2.391900255291778e-07
1.809091523170456e-07 2.490002250764128e-07
1.853103738828534e-07 2.550579864153876e-07
1.936922047469682e-07 2.391900255291778e-07
1.891821986762877e-07 2.336206342574674e-07
1.766967924583659e-07 2.432024103236086e-07
1.809091523170456e-07 2.490002250764128e-07
1.891821986762877e-07 2.336206342574674e-07
1.848665943345490e-07 2.282913088124526e-07
1.726660047467700e-07 2.376545079642796e-07
1.766967924583659e-07 2.432024103236086e-07
1.848665943345490e-07 2.282913088124526e-07
1.807380092883652e-07 2.231929321103191e-07
1.688098939858490e-07 2.323470267034877e-07
1.726660047467700e-07 2.376545079642796e-07
1.807380092883652e-07 2.231929321103191e-07
1.767894562357291e-07 2.183168749579959e-07
1.651219342779509e-07 2.272709834225542e-07
1.688098939858490e-07 2.323470267034877e-07
1.767894562357291e-07 2.183168749579959e-07
1.730143184177357e-07 2.136549657892292e-07
1.615959456018901e-07 2.224178713524255e-07
1.651219342779509e-07 2.272709834225542e-07
1.730143184177357e-07 2.136549657892292e-07
1.694063265804805e-07 2.091994623259217e-07
1.582260724674188e-07 2.177796302848335e-07
1.615959456018901e-07 2.224178713524255e-07
1.694063265804805e-07 2.091994623259217e-07
1.659595377105061e-07 2.049430251325875e-07
1.550067643449883e-07 2.133486197739043e-07
1.582260724674188e-07 2.177796302848335e-07
1.659595377105061e-07 2.049430251325875e-07
1.626683157801732e-07 2.008786936811222e-07
1.519327570808149e-07 2.091175937720815e-07
1.550067643449883e-07 2.133486197739043e-07
1.626683157801732e-07 2.008786936811222e-07
1.595273131734396e-07 1.969998639209774e-07
1.489990562411019e-07 2.050796773669963e-07
1.519327570808149e-07 2.091175937720815e-07
1.595273131734396e-07 1.969998639209774e-07
1.565314543358629e-07 1.933002677206998e-07
1.462009212932165e-07 2.012283449723674e-07
1.489990562411019e-07 2.050796773669963e-07
1.565314543358629e-07 1.933002677206998e-07
1.536759200752849e-07 1.897739531224686e-07
1.435338510169680e-07 1.975574006729844e-07
1.462009212932165e-07 2.012283449723674e-07
1.536759200752849e-07 1.897739531224686e-07
1.509561326599712e-07 1.864152671320232e-07
1.409935701384545e-07 1.940609594408228e-07
1.435338510169680e-07 1.975574006729844e-07
1.509561326599712e-07 1.864152671320232e-07
1.483677430900476e-07 1.832188385621801e-07
1.385760166180259e-07 1.907334295998746e-07
1.409935701384545e-07 1.940609594408228e-07
1.483677430900476e-07 1.832188385621801e-07
1.459066181770209e-07 1.801795630202725e-07
1.362773300991379e-07 1.875694973785819e-07
1.385760166180259e-07 1.907334295998746e-07
1.459066181770209e-07 1.801795630202725e-07
1.435688288432701e-07 1.772925881086045e-07
1.340938409957627e-07 1.845641113429979e-07
1.362773300991379e-07 1.875694973785819e-07
1.435688288432701e-07 1.772925881086045e-07
1.413506394211282e-07 1.745533001553396e-07
1.320220602182879e-07 1.817124686112905e-07
1.340938409957627e-07 1.845641113429979e-07
1.413506394211282e-07 1.745533001553396e-07
1.392484975863577e-07 1.719573121551116e-07
1.300586699190751e-07 1.790100019300601e-07
1.320220602182879e-07 1.817124686112905e-07
1.392484975863577e-07 1.719573121551116e-07
1.372590245123204e-07 1.695004512592150e-07
1.282005143797038e-07 1.764523673855128e-07
1.300586699190751e-07 1.790100019300601e-07
1.372590245123204e-07 1.695004512592150e-07
1.353790067142826e-07 1.671787484624798e-07
1.264445922059698e-07 1.740354329667272e-07
1.282005143797038e-07 1.764523673855128e-07
1.353790067142826e-07 1.671787484624798e-07
1.336053868406091e-07 1.649884280696523e-07
1.247880482140099e-07 1.717552681268377e-07
1.264445922059698e-07 1.740354329667272e-07
1.336053868406091e-07 1.649884280696523e-07
1.319352568380209e-07 1.629258985114514e-07
1.232281659244849e-07 1.696081339435491e-07
1.247880482140099e-07 1.717552681268377e-07
1.319352568380209e-07 1.629258985114514e-07
1.303658500869177e-07 1.609877429420112e-07
1.217623618015817e-07 1.675904732787280e-07
1.232281659244849e-07 1.696081339435491e-07
1.303658500869177e-07 1.609877429420112e-07
1.288945350872684e-07 1.591707110764577e-07
1.203881776958312e-07 1.656989023648826e-07
1.217623618015817e-07 1.675904732787280e-07
1.288945350872684e-07 1.591707110764577e-07
1.275188083769364e-07 1.574717112617000e-07
1.191032759222022e-07 1.639302029005598e-07
1.203881776958312e-07 1.656989023648826e-07
1.275188083769364e-07 1.574717112617000e-07
1.262362895026437e-07 1.558878031333334e-07
1.179054326654662e-07 1.622813134496654e-07
1.191032759222022e-07 1.639302029005598e-07
1.262362895026437e-07 1.558878031333334e-07
1.250447143006826e-07 1.544161903536368e-07
1.167925338325607e-07 1.607493234653990e-07
1.179054326654662e-07 1.622813134496654e-07
1.250447143006826e-07 1.544161903536368e-07
1.239419305730909e-07 1.530542148708539e-07
1.157625689935181e-07 1.593314651286305e-07
1.167925338325607e-07 1.607493234653990e-07
1.239419305730909e-07 1.530542148708539e-07
1.229258925133055e-07 1.517993495930730e-07
1.148136277152239e-07 1.580251082120239e-07
1.157625689935181e-07 1.593314651286305e-07
1.229258925133055e-07 1.517993495930730e-07
1.219946563169886e-07 1.506491937064108e-07
1.139438943902331e-07 1.568277529297266e-07
1.148136277152239e-07 1.580251082120239e-07
1.219946563169886e-07 1.506491937064108e-07
1.211463754964271e-07 1.496014666631626e-07
1.131516444969884e-07 1.557370252046902e-07
1.139438943902331e-07 1.568277529297266e-07
1.899081684508491e-07 2.613863093291720e-07
1.853103738828534e-07 2.550579864153876e-07
1.717084993545345e-07 2.644081425333356e-07
1.759688109984490e-07 2.709684546886361e-07
1.853103738828534e-07 2.550579864153876e-07
1.809091523170456e-07 2.490002250764128e-07
1.676303319827351e-07 2.581283110609091e-07
1.717084993545345e-07 2.644081425333356e-07
1.809091523170456e-07 2.490002250764128e-07
1.766967924583659e-07 2.432024103236086e-07
1.637271637366693e-07 2.521179562186655e-07
1.676303319827351e-07 2.581283110609091e-07
1.766967924583659e-07 2.432024103236086e-07
1.726660047467700e-07 2.376545079642796e-07
1.599922402533937e-07 2.463666757101537e-07
1.637271637366693e-07 2.521179562186655e-07
1.726660047467700e-07 2.376545079642796e-07
1.688098939858490e-07 2.323470267034877e-07
1.564191726604423e-07 2.408646302564389e-07
1.599922402533937e-07 2.463666757101537e-07
1.688098939858490e-07 2.323470267034877e-07
1.651219342779509e-07 2.272709834225542e-07
1.530019141160559e-07 2.356025073892604e-07
1.564191726604423e-07 2.408646302564389e-07
1.651219342779509e-07 2.272709834225542e-07
1.615959456018901e-07 2.224178713524255e-07
1.497347383817081e-07 2.305714880429765e-07
1.530019141160559e-07 2.356025073892604e-07
1.615959456018901e-07 2.224178713524255e-07
1.582260724674188e-07 2.177796302848335e-07
1.466122199106621e-07 2.257632167636965e-07
1.497347383817081e-07 2.305714880429765e-07
1.582260724674188e-07 2.177796302848335e-07
1.550067643449883e-07 2.133486197739043e-07
1.436292156286997e-07 2.211697728419996e-07
1.466122199106621e-07 2.257632167636965e-07
1.550067643449883e-07 2.133486197739043e-07
1.519327570808149e-07 2.091175937720815e-07
1.407808479475237e-07 2.167836444400484e-07
1.436292156286997e-07 2.211697728419996e-07
1.519327570808149e-07 2.091175937720815e-07
1.489990562411019e-07 2.050796773669963e-07
1.380624890727514e-07 2.125977045211577e-07
1.407808479475237e-07 2.167836444400484e-07
1.489990562411019e-07 2.050796773669963e-07
1.462009212932165e-07 2.012283449723674e-07
1.354697465238722e-07 2.086051882894162e-07
1.380624890727514e-07 2.125977045211577e-07
1.462009212932165e-07 2.012283449723674e-07
1.435338510169680e-07 1.975574006729844e-07
1.329984494999386e-07 2.047996725365151e-07
1.354697465238722e-07 2.086051882894162e-07
1.435338510169680e-07 1.975574006729844e-07
1.409935701384545e-07 1.940609594408228e-07
1.306446367231407e-07 2.011750563675316e-07
1.329984494999386e-07 2.047996725365151e-07
1.409935701384545e-07 1.940609594408228e-07
1.385760166180259e-07 1.907334295998746e-07
1.284045443572820e-07 1.977255431088135e-07
1.306446367231407e-07 2.011750563675316e-07
1.385760166180259e-07 1.907334295998746e-07
1.362773300991379e-07 1.875694973785819e-07
1.262745955093549e-07 1.944456242163992e-07
1.284045443572820e-07 1.977255431088135e-07
1.362773300991379e-07 1.875694973785819e-07
1.340938409957627e-07 1.845641113429979e-07
1.242513899117636e-07 1.913300627438416e-07
1.262745955093549e-07 1.944456242163992e-07