<?xml version="1.0" ?> 
<!-- 
# vtk DataFile Version 3.0
-->
<VTKFile type="UnstructuredGrid" version="0.1" compressor="vtkZLibDataCompressor" byte_order="LittleEndian">
  <UnstructuredGrid>
    <FieldData>
      <DataArray type="Float64" Name="TIME" NumberOfTuples="1" format="ascii">
1.000000000000000e+00 
      </DataArray>
    </FieldData>

    <Piece NumberOfPoints="9045" NumberOfCells="335" >
      <Points>
        <DataArray type="Float64" NumberOfComponents="3" format="ascii">
-5.000000000000000e-01 -5.000000000000000e-01 5.000000000000000e-01
-5.000000000000000e-01 -5.000000000000000e-01 4.000000000000000e-01
-5.000000000000000e-01 -4.000000000000001e-01 4.000000000000000e-01
-5.000000000000000e-01 -4.000000000000000e-01 5.000000000000000e-01
-4.000000000000000e-01 -5.000000000000000e-01 5.000000000000000e-01
-4.000000000000000e-01 -5.000000000000000e-01 4.000000000000000e-01
-4.000000000000001e-01 -4.000000000000000e-01 4.000000000000000e-01
-4.000000000000001e-01 -4.000000000000000e-01 5.000000000000000e-01
-5.000000000000000e-01 -5.000000000000000e-01 4.500000000000000e-01
-5.000000000000000e-01 -4.500000000000001e-01 4.000000000000000e-01
-5.000000000000000e-01 -4.000000000000000e-01 4.500000000000000e-01
-5.000000000000000e-01 -4.500000000000000e-01 5.000000000000000e-01
-4.000000000000000e-01 -5.000000000000000e-01 4.500000000000000e-01
-4.000000000000001e-01 -4.500000000000000e-01 4.000000000000000e-01
-4.000000000000001e-01 -4.000000000000000e-01 4.500000000000000e-01
-4.000000000000001e-01 -4.500000000000000e-01 5.000000000000000e-01
-4.500000000000000e-01 -5.000000000000000e-01 5.000000000000000e-01
-4.500000000000000e-01 -5.000000000000000e-01 4.000000000000000e-01
-4.500000000000001e-01 -4.000000000000000e-01 4.000000000000000e-01
-4.500000000000001e-01 -4.000000000000000e-01 5.000000000000000e-01
-4.500000000000000e-01 -4.500000000000000e-01 5.000000000000000e-01
-4.500000000000000e-01 -4.500000000000000e-01 4.000000000000000e-01
-4.500000000000001e-01 -5.000000000000000e-01 4.500000000000000e-01
-4.500000000000001e-01 -4.000000000000000e-01 4.500000000000001e-01
-5.000000000000000e-01 -4.500000000000000e-01 4.500000000000001e-01
-4.000000000000001e-01 -4.500000000000001e-01 4.500000000000000e-01
-4.500000000000000e-01 -4.500000000000000e-01 4.500000000000001e-01
-5.000000000000000e-01 -5.000000000000000e-01 4.000000000000000e-01
-5.000000000000000e-01 -5.000000000000000e-01 3.000000000000000e-01
-5.000000000000000e-01 -4.000000000000000e-01 2.999999999999999e-01
-5.000000000000000e-01 -4.000000000000001e-01 4.000000000000000e-01
-4.000000000000000e-01 -5.000000000000000e-01 4.000000000000000e-01
-4.000000000000000e-01 -5.000000000000000e-01 3.000000000000000e-01
-4.000000000000000e-01 -4.000000000000001e-01 3.000000000000000e-01
-4.000000000000001e-01 -4.000000000000000e-01 4.000000000000000e-01
-5.000000000000000e-01 -5.000000000000000e-01 3.500000000000000e-01
-5.000000000000000e-01 -4.500000000000000e-01 2.999999999999999e-01
-5.000000000000000e-01 -4.000000000000000e-01 3.500000000000000e-01
-5.000000000000000e-01 -4.500000000000001e-01 4.000000000000000e-01
-4.000000000000000e-01 -5.000000000000000e-01 3.500000000000000e-01
-4.000000000000000e-01 -4.500000000000001e-01 3.000000000000000e-01
-4.000000000000000e-01 -4.000000000000000e-01 3.500000000000000e-01
-4.000000000000001e-01 -4.500000000000000e-01 4.000000000000000e-01
-4.500000000000000e-01 -5.000000000000000e-01 4.000000000000000e-01
-4.500000000000000e-01 -5.000000000000000e-01 3.000000000000000e-01
-4.500000000000000e-01 -4.000000000000000e-01 2.999999999999999e-01
-4.500000000000001e-01 -4.000000000000000e-01 4.000000000000000e-01
-4.500000000000000e-01 -4.500000000000000e-01 4.000000000000000e-01
-4.500000000000000e-01 -4.500000000000001e-01 3.000000000000000e-01
-4.500000000000001e-01 -5.000000000000000e-01 3.500000000000000e-01
-4.500000000000000e-01 -4.000000000000000e-01 3.500000000000000e-01
-5.000000000000000e-01 -4.500000000000001e-01 3.500000000000000e-01
-4.000000000000001e-01 -4.500000000000000e-01 3.500000000000000e-01
-4.500000000000000e-01 -4.500000000000000e-01 3.499999999999999e-01
-5.000000000000000e-01 -5.000000000000000e-01 3.000000000000000e-01
-5.000000000000000e-01 -5.000000000000000e-01 2.000000000000000e-01
-5.000000000000000e-01 -4.000000000000000e-01 2.000000000000000e-01
-5.000000000000000e-01 -4.000000000000000e-01 2.999999999999999e-01
-4.000000000000000e-01 -5.000000000000000e-01 3.000000000000000e-01
-3.999999999999999e-01 -5.000000000000000e-01 2.000000000000000e-01
-4.000000000000000e-01 -4.000000000000000e-01 2.000000000000000e-01
-4.000000000000000e-01 -4.000000000000001e-01 3.000000000000000e-01
-5.000000000000000e-01 -5.000000000000000e-01 2.500000000000000e-01
-5.000000000000000e-01 -4.500000000000000e-01 2.000000000000000e-01
-5.000000000000000e-01 -4.000000000000000e-01 2.499999999999999e-01
-5.000000000000000e-01 -4.500000000000000e-01 2.999999999999999e-01
-3.999999999999999e-01 -5.000000000000000e-01 2.500000000000000e-01
-3.999999999999999e-01 -4.500000000000000e-01 2.000000000000000e-01
-4.000000000000000e-01 -4.000000000000000e-01 2.500000000000000e-01
-4.000000000000000e-01 -4.500000000000001e-01 3.000000000000000e-01
-4.500000000000000e-01 -5.000000000000000e-01 3.000000000000000e-01
-4.500000000000000e-01 -5.000000000000000e-01 2.000000000000000e-01
-4.500000000000000e-01 -4.000000000000000e-01 2.000000000000000e-01
-4.500000000000000e-01 -4.000000000000000e-01 2.999999999999999e-01
-4.500000000000000e-01 -4.500000000000001e-01 3.000000000000000e-01
-4.500000000000000e-01 -4.500000000000000e-01 2.000000000000000e-01
-4.500000000000000e-01 -5.000000000000000e-01 2.500000000000000e-01
-4.500000000000000e-01 -4.000000000000000e-01 2.499999999999999e-01
-5.000000000000000e-01 -4.500000000000000e-01 2.499999999999999e-01
-3.999999999999999e-01 -4.500000000000001e-01 2.500000000000000e-01
-4.500000000000000e-01 -4.500000000000001e-01 2.500000000000000e-01
-5.000000000000000e-01 -5.000000000000000e-01 2.000000000000000e-01
-5.000000000000000e-01 -5.000000000000000e-01 9.999999999999998e-02
-5.000000000000000e-01 -4.000000000000000e-01 9.999999999999995e-02
-5.000000000000000e-01 -4.000000000000000e-01 2.000000000000000e-01
-3.999999999999999e-01 -5.000000000000000e-01 2.000000000000000e-01
-4.000000000000000e-01 -5.000000000000000e-01 9.999999999999995e-02
-4.000000000000001e-01 -4.000000000000001e-01 9.999999999999995e-02
-4.000000000000000e-01 -4.000000000000000e-01 2.000000000000000e-01
-5.000000000000000e-01 -5.000000000000000e-01 1.500000000000000e-01
-5.000000000000000e-01 -4.500000000000000e-01 9.999999999999996e-02
-5.000000000000000e-01 -4.000000000000000e-01 1.500000000000000e-01
-5.000000000000000e-01 -4.500000000000000e-01 2.000000000000000e-01
-4.000000000000000e-01 -5.000000000000000e-01 1.500000000000000e-01
-4.000000000000000e-01 -4.500000000000001e-01 9.999999999999995e-02
-4.000000000000000e-01 -4.000000000000000e-01 1.500000000000000e-01
-3.999999999999999e-01 -4.500000000000000e-01 2.000000000000000e-01
-4.500000000000000e-01 -5.000000000000000e-01 2.000000000000000e-01
-4.500000000000000e-01 -5.000000000000000e-01 9.999999999999996e-02
-4.500000000000001e-01 -4.000000000000000e-01 9.999999999999995e-02
-4.500000000000000e-01 -4.000000000000000e-01 2.000000000000000e-01
-4.500000000000000e-01 -4.500000000000000e-01 2.000000000000000e-01
-4.500000000000000e-01 -4.500000000000001e-01 9.999999999999995e-02
-4.500000000000000e-01 -5.000000000000000e-01 1.500000000000000e-01
-4.500000000000000e-01 -4.000000000000000e-01 1.500000000000000e-01
-5.000000000000000e-01 -4.500000000000000e-01 1.500000000000000e-01
-4.000000000000001e-01 -4.500000000000000e-01 1.500000000000000e-01
-4.500000000000000e-01 -4.500000000000000e-01 1.500000000000000e-01
-5.000000000000000e-01 -5.000000000000000e-01 9.999999999999998e-02
-5.000000000000000e-01 -5.000000000000000e-01 0.000000000000000e+00
-5.000000000000000e-01 -3.999999999999997e-01 0.000000000000000e+00
-5.000000000000000e-01 -4.000000000000000e-01 9.999999999999995e-02
-4.000000000000000e-01 -5.000000000000000e-01 9.999999999999995e-02
-4.000000000000001e-01 -5.000000000000000e-01 0.000000000000000e+00
-4.000000000000001e-01 -3.999999999999999e-01 0.000000000000000e+00
-4.000000000000001e-01 -4.000000000000001e-01 9.999999999999995e-02
-5.000000000000000e-01 -5.000000000000000e-01 4.999999999999999e-02
-5.000000000000000e-01 -4.499999999999998e-01 0.000000000000000e+00
-5.000000000000000e-01 -3.999999999999999e-01 4.999999999999998e-02
-5.000000000000000e-01 -4.500000000000000e-01 9.999999999999996e-02
-4.000000000000001e-01 -5.000000000000000e-01 4.999999999999998e-02
-4.000000000000001e-01 -4.500000000000000e-01 0.000000000000000e+00
-4.000000000000001e-01 -4.000000000000000e-01 4.999999999999998e-02
-4.000000000000000e-01 -4.500000000000001e-01 9.999999999999995e-02
-4.500000000000000e-01 -5.000000000000000e-01 9.999999999999996e-02
-4.500000000000001e-01 -5.000000000000000e-01 0.000000000000000e+00
-4.500000000000001e-01 -3.999999999999998e-01 0.000000000000000e+00
-4.500000000000001e-01 -4.000000000000000e-01 9.999999999999995e-02
-4.500000000000000e-01 -4.500000000000001e-01 9.999999999999995e-02
-4.500000000000001e-01 -4.499999999999999e-01 0.000000000000000e+00
-4.500000000000000e-01 -5.000000000000000e-01 4.999999999999998e-02
-4.500000000000001e-01 -3.999999999999999e-01 4.999999999999998e-02
-5.000000000000000e-01 -4.499999999999998e-01 4.999999999999998e-02
-4.000000000000002e-01 -4.500000000000001e-01 4.999999999999998e-02
-4.500000000000000e-01 -4.500000000000000e-01 4.999999999999997e-02
-5.000000000000000e-01 -5.000000000000000e-01 0.000000000000000e+00
-5.000000000000000e-01 -5.000000000000000e-01 -1.000000000000001e-01
-5.000000000000000e-01 -4.000000000000000e-01 -1.000000000000001e-01
-5.000000000000000e-01 -3.999999999999997e-01 0.000000000000000e+00
[...]
  <PointData>
        <DataArray type="Float64" Name="acceleration" NumberOfComponents="3" format="ascii">
0.000000000000000e+00 0.000000000000000e+00 0.000000000000000e+00
0.000000000000000e+00 0.000000000000000e+00 0.000000000000000e+00
0.000000000000000e+00 0.000000000000000e+00 0.000000000000000e+00
0.000000000000000e+00 0.000000000000000e+00 0.000000000000000e+00
0.000000000000000e+00 0.000000000000000e+00 0.000000000000000e+00
0.000000000000000e+00 0.000000000000000e+00 0.000000000000000e+00
0.000000000000000e+00 0.000000000000000e+00 0.000000000000000e+00
0.000000000000000e+00 0.000000000000000e+00 0.000000000000000e+00
0.000000000000000e+00 0.000000000000000e+00 0.000000000000000e+00
0.000000000000000e+00 0.000000000000000e+00 0.000000000000000e+00
0.000000000000000e+00 0.000000000000000e+00 0.000000000000000e+00
0.000000000000000e+00 0.000000000000000e+00 0.000000000000000e+00
0.000000000000000e+00 0.000000000000000e+00 0.000000000000000e+00
0.000000000000000e+00 0.000000000000000e+00 0.000000000000000e+00
0.000000000000000e+00 0.000000000000000e+00 0.000000000000000e+00
0.000000000000000e+00 0.000000000000000e+00 0.000000000000000e+00
0.000000000000000e+00 0.000000000000000e+00 0.000000000000000e+00
0.000000000000000e+00 0.000000000000000e+00 0.000000000000000e+00
0.000000000000000e+00 0.000000000000000e+00 0.000000000000000e+00
0.000000000000000e+00 0.000000000000000e+00 0.000000000000000e+00
0.000000000000000e+00 0.000000000000000e+00 0.000000000000000e+00
0.000000000000000e+00 0.000000000000000e+00 0.000000000000000e+00
0.000000000000000e+00 0.000000000000000e+00 0.000000000000000e+00
0.000000000000000e+00 0.000000000000000e+00 0.000000000000000e+00
0.000000000000000e+00 0.000000000000000e+00 0.000000000000000e+00
0.000000000000000e+00 0.000000000000000e+00 0.000000000000000e+00
0.000000000000000e+00 0.000000000000000e+00 0.000000000000000e+00
0.000000000000000e+00 0.000000000000000e+00 0.000000000000000e+00
0.000000000000000e+00 0.000000000000000e+00 0.000000000000000e+00
0.000000000000000e+00 0.000000000000000e+00 0.000000000000000e+00
0.000000000000000e+00 0.000000000000000e+00 0.000000000000000e+00
0.000000000000000e+00 0.000000000000000e+00 0.000000000000000e+00
0.000000000000000e+00 0.000000000000000e+00 0.000000000000000e+00
0.000000000000000e+00 0.000000000000000e+00 0.000000000000000e+00
0.000000000000000e+00 0.000000000000000e+00 0.000000000000000e+00
0.000000000000000e+00 0.000000000000000e+00 0.000000000000000e+00
0.000000000000000e+00 0.000000000000000e+00 0.000000000000000e+00
0.000000000000000e+00 0.000000000000000e+00 0.000000000000000e+00
0.000000000000000e+00 0.000000000000000e+00 0.000000000000000e+00
0.000000000000000e+00 0.000000000000000e+00 0.000000000000000e+00
0.000000000000000e+00 0.000000000000000e+00 0.000000000000000e+00
0.000000000000000e+00 0.000000000000000e+00 0.000000000000000e+00
0.000000000000000e+00 0.000000000000000e+00 0.000000000000000e+00
0.000000000000000e+00 0.000000000000000e+00 0.000000000000000e+00
0.000000000000000e+00 0.000000000000000e+00 0.000000000000000e+00
0.000000000000000e+00 0.000000000000000e+00 0.000000000000000e+00
0.000000000000000e+00 0.000000000000000e+00 0.000000000000000e+00
0.000000000000000e+00 0.000000000000000e+00 0.000000000000000e+00
0.000000000000000e+00 0.000000000000000e+00 0.000000000000000e+00
0.000000000000000e+00 0.000000000000000e+00 0.000000000000000e+00
0.000000000000000e+00 0.000000000000000e+00 0.000000000000000e+00
0.000000000000000e+00 0.000000000000000e+00 0.000000000000000e+00
0.000000000000000e+00 0.000000000000000e+00 0.000000000000000e+00
0.000000000000000e+00 0.000000000000000e+00 0.000000000000000e+00
0.000000000000000e+00 0.000000000000000e+00 0.000000000000000e+00
0.000000000000000e+00 0.000000000000000e+00 0.000000000000000e+00
0.000000000000000e+00 0.000000000000000e+00 0.000000000000000e+00
0.000000000000000e+00 0.000000000000000e+00 0.000000000000000e+00
0.000000000000000e+00 0.000000000000000e+00 0.000000000000000e+00
0.000000000000000e+00 0.000000000000000e+00 0.000000000000000e+00
0.000000000000000e+00 0.000000000000000e+00 0.000000000000000e+00
0.000000000000000e+00 0.000000000000000e+00 0.000000000000000e+00
0.000000000000000e+00 0.000000000000000e+00 0.000000000000000e+00
0.000000000000000e+00 0.000000000000000e+00 0.000000000000000e+00
0.000000000000000e+00 0.000000000000000e+00 0.000000000000000e+00
0.000000000000000e+00 0.000000000000000e+00 0.000000000000000e+00
0.000000000000000e+00 0.000000000000000e+00 0.000000000000000e+00
0.000000000000000e+00 0.000000000000000e+00 0.000000000000000e+00
0.000000000000000e+00 0.000000000000000e+00 0.000000000000000e+00
0.000000000000000e+00 0.000000000000000e+00 0.000000000000000e+00
0.000000000000000e+00 0.000000000000000e+00 0.000000000000000e+00
0.000000000000000e+00 0.000000000000000e+00 0.000000000000000e+00
0.000000000000000e+00 0.000000000000000e+00 0.000000000000000e+00
0.000000000000000e+00 0.000000000000000e+00 0.000000000000000e+00
0.000000000000000e+00 0.000000000000000e+00 0.000000000000000e+00
0.000000000000000e+00 0.000000000000000e+00 0.000000000000000e+00
0.000000000000000e+00 0.000000000000000e+00 0.000000000000000e+00
0.000000000000000e+00 0.000000000000000e+00 0.000000000000000e+00
0.000000000000000e+00 0.000000000000000e+00 0.000000000000000e+00
0.000000000000000e+00 0.000000000000000e+00 0.000000000000000e+00
0.000000000000000e+00 0.000000000000000e+00 0.000000000000000e+00
0.000000000000000e+00 0.000000000000000e+00 0.000000000000000e+00
0.000000000000000e+00 0.000000000000000e+00 0.000000000000000e+00
0.000000000000000e+00 0.000000000000000e+00 0.000000000000000e+00
0.000000000000000e+00 0.000000000000000e+00 0.000000000000000e+00
0.000000000000000e+00 0.000000000000000e+00 0.000000000000000e+00
0.000000000000000e+00 0.000000000000000e+00 0.000000000000000e+00
0.000000000000000e+00 0.000000000000000e+00 0.000000000000000e+00
0.000000000000000e+00 0.000000000000000e+00 0.000000000000000e+00
0.000000000000000e+00 0.000000000000000e+00 0.000000000000000e+00
0.000000000000000e+00 0.000000000000000e+00 0.000000000000000e+00
0.000000000000000e+00 0.000000000000000e+00 0.000000000000000e+00
0.000000000000000e+00 0.000000000000000e+00 0.000000000000000e+00
0.000000000000000e+00 0.000000000000000e+00 0.000000000000000e+00
0.000000000000000e+00 0.000000000000000e+00 0.000000000000000e+00
0.000000000000000e+00 0.000000000000000e+00 0.000000000000000e+00
0.000000000000000e+00 0.000000000000000e+00 0.000000000000000e+00
0.000000000000000e+00 0.000000000000000e+00 0.000000000000000e+00
0.000000000000000e+00 0.000000000000000e+00 0.000000000000000e+00
0.000000000000000e+00 0.000000000000000e+00 0.000000000000000e+00
0.000000000000000e+00 0.000000000000000e+00 0.000000000000000e+00
0.000000000000000e+00 0.000000000000000e+00 0.000000000000000e+00
0.000000000000000e+00 0.000000000000000e+00 0.000000000000000e+00
0.000000000000000e+00 0.000000000000000e+00 0.000000000000000e+00
0.000000000000000e+00 0.000000000000000e+00 0.000000000000000e+00
0.000000000000000e+00 0.000000000000000e+00 0.000000000000000e+00
0.000000000000000e+00 0.000000000000000e+00 0.000000000000000e+00
0.000000000000000e+00 0.000000000000000e+00 0.000000000000000e+00
0.000000000000000e+00 0.000000000000000e+00 0.000000000000000e+00
0.000000000000000e+00 0.000000000000000e+00 0.000000000000000e+00
0.000000000000000e+00 0.000000000000000e+00 0.000000000000000e+00
0.000000000000000e+00 0.000000000000000e+00 0.000000000000000e+00
0.000000000000000e+00 0.000000000000000e+00 0.000000000000000e+00
0.000000000000000e+00 0.000000000000000e+00 0.000000000000000e+00
0.000000000000000e+00 0.000000000000000e+00 0.000000000000000e+00
0.000000000000000e+00 0.000000000000000e+00 0.000000000000000e+00
0.000000000000000e+00 0.000000000000000e+00 0.000000000000000e+00
0.000000000000000e+00 0.000000000000000e+00 0.000000000000000e+00
0.000000000000000e+00 0.000000000000000e+00 0.000000000000000e+00
0.000000000000000e+00 0.000000000000000e+00 0.000000000000000e+00
0.000000000000000e+00 0.000000000000000e+00 0.000000000000000e+00
0.000000000000000e+00 0.000000000000000e+00 0.000000000000000e+00
0.000000000000000e+00 0.000000000000000e+00 0.000000000000000e+00
0.000000000000000e+00 0.000000000000000e+00 0.000000000000000e+00
0.000000000000000e+00 0.000000000000000e+00 0.000000000000000e+00
0.000000000000000e+00 0.000000000000000e+00 0.000000000000000e+00
0.000000000000000e+00 0.000000000000000e+00 0.000000000000000e+00
0.000000000000000e+00 0.000000000000000e+00 0.000000000000000e+00
0.000000000000000e+00 0.000000000000000e+00 0.000000000000000e+00
0.000000000000000e+00 0.000000000000000e+00 0.000000000000000e+00
0.000000000000000e+00 0.000000000000000e+00 0.000000000000000e+00
0.000000000000000e+00 0.000000000000000e+00 0.000000000000000e+00
0.000000000000000e+00 0.000000000000000e+00 0.000000000000000e+00
0.000000000000000e+00 0.000000000000000e+00 0.000000000000000e+00
0.000000000000000e+00 0.000000000000000e+00 0.000000000000000e+00
0.000000000000000e+00 0.000000000000000e+00 0.000000000000000e+00
0.000000000000000e+00 0.000000000000000e+00 0.000000000000000e+00
0.000000000000000e+00 0.000000000000000e+00 0.000000000000000e+00
0.000000000000000e+00 0.000000000000000e+00 0.000000000000000e+00
0.000000000000000e+00 0.000000000000000e+00 0.000000000000000e+00
0.000000000000000e+00 0.000000000000000e+00 0.000000000000000e+00
0.000000000000000e+00 0.000000000000000e+00 0.000000000000000e+00
0.000000000000000e+00 0.000000000000000e+00 0.000000000000000e+00
0.000000000000000e+00 0.000000000000000e+00 0.000000000000000e+00
0.000000000000000e+00 0.000000000000000e+00 0.000000000000000e+00
0.000000000000000e+00 0.000000000000000e+00 0.000000000000000e+00
0.000000000000000e+00 0.000000000000000e+00 0.000000000000000e+00
0.000000000000000e+00 0.000000000000000e+00 0.000000000000000e+00
0.000000000000000e+00 0.000000000000000e+00 0.000000000000000e+00
0.000000000000000e+00 0.000000000000000e+00 0.000000000000000e+00
0.000000000000000e+00 0.000000000000000e+00 0.000000000000000e+00
0.000000000000000e+00 0.000000000000000e+00 0.000000000000000e+00
0.000000000000000e+00 0.000000000000000e+00 0.000000000000000e+00
0.000000000000000e+00 0.000000000000000e+00 0.000000000000000e+00
0.000000000000000e+00 0.000000000000000e+00 0.000000000000000e+00
0.000000000000000e+00 0.000000000000000e+00 0.000000000000000e+00
0.000000000000000e+00 0.000000000000000e+00 0.000000000000000e+00
0.000000000000000e+00 0.000000000000000e+00 0.000000000000000e+00
0.000000000000000e+00 0.000000000000000e+00 0.000000000000000e+00
0.000000000000000e+00 0.000000000000000e+00 0.000000000000000e+00
0.000000000000000e+00 0.000000000000000e+00 0.000000000000000e+00
0.000000000000000e+00 0.000000000000000e+00 0.000000000000000e+00
0.000000000000000e+00 0.000000000000000e+00 0.000000000000000e+00
0.000000000000000e+00 0.000000000000000e+00 0.000000000000000e+00
0.000000000000000e+00 0.000000000000000e+00 0.000000000000000e+00
0.000000000000000e+00 0.000000000000000e+00 0.000000000000000e+00
0.000000000000000e+00 0.000000000000000e+00 0.000000000000000e+00
0.000000000000000e+00 0.000000000000000e+00 0.000000000000000e+00
0.000000000000000e+00 0.000000000000000e+00 0.000000000000000e+00
0.000000000000000e+00 0.000000000000000e+00 0.000000000000000e+00
0.000000000000000e+00 0.000000000000000e+00 0.000000000000000e+00
0.000000000000000e+00 0.000000000000000e+00 0.000000000000000e+00
0.000000000000000e+00 0.000000000000000e+00 0.000000000000000e+00
0.000000000000000e+00 0.000000000000000e+00 0.000000000000000e+00
0.000000000000000e+00 0.000000000000000e+00 0.000000000000000e+00
0.000000000000000e+00 0.000000000000000e+00 0.000000000000000e+00
0.000000000000000e+00 0.000000000000000e+00 0.000000000000000e+00
0.000000000000000e+00 0.000000000000000e+00 0.000000000000000e+00
0.000000000000000e+00 0.000000000000000e+00 0.000000000000000e+00
0.000000000000000e+00 0.000000000000000e+00 0.000000000000000e+00
0.000000000000000e+00 0.000000000000000e+00 0.000000000000000e+00
0.000000000000000e+00 0.000000000000000e+00 0.000000000000000e+00
0.000000000000000e+00 0.000000000000000e+00 0.000000000000000e+00
0.000000000000000e+00 0.000000000000000e+00 0.000000000000000e+00
0.000000000000000e+00 0.000000000000000e+00 0.000000000000000e+00
0.000000000000000e+00 0.000000000000000e+00 0.000000000000000e+00
0.000000000000000e+00 0.000000000000000e+00 0.000000000000000e+00
0.000000000000000e+00 0.000000000000000e+00 0.000000000000000e+00
0.000000000000000e+00 0.000000000000000e+00 0.000000000000000e+00
0.000000000000000e+00 0.000000000000000e+00 0.000000000000000e+00
0.000000000000000e+00 0.000000000000000e+00 0.000000000000000e+00
0.000000000000000e+00 0.000000000000000e+00 0.000000000000000e+00
0.000000000000000e+00 0.000000000000000e+00 0.000000000000000e+00
0.000000000000000e+00 0.000000000000000e+00 0.000000000000000e+00
0.000000000000000e+00 0.000000000000000e+00 0.000000000000000e+00
0.000000000000000e+00 0.000000000000000e+00 0.000000000000000e+00
0.000000000000000e+00 0.000000000000000e+00 0.000000000000000e+00
0.000000000000000e+00 0.000000000000000e+00 0.000000000000000e+00
0.000000000000000e+00 0.000000000000000e+00 0.000000000000000e+00
0.000000000000000e+00 0.000000000000000e+00 0.000000000000000e+00
0.000000000000000e+00 0.000000000000000e+00 0.000000000000000e+00
0.000000000000000e+00 0.000000000000000e+00 0.000000000000000e+00
0.000000000000000e+00 0.000000000000000e+00 0.000000000000000e+00
0.000000000000000e+00 0.000000000000000e+00 0.000000000000000e+00
0.000000000000000e+00 0.000000000000000e+00 0.000000000000000e+00
0.000000000000000e+00 0.000000000000000e+00 0.000000000000000e+00
0.000000000000000e+00 0.000000000000000e+00 0.000000000000000e+00
0.000000000000000e+00 0.000000000000000e+00 0.000000000000000e+00
0.000000000000000e+00 0.000000000000000e+00 0.000000000000000e+00
0.000000000000000e+00 0.000000000000000e+00 0.000000000000000e+00
0.000000000000000e+00 0.000000000000000e+00 0.000000000000000e+00
0.000000000000000e+00 0.000000000000000e+00 0.000000000000000e+00
0.000000000000000e+00 0.000000000000000e+00 0.000000000000000e+00
0.000000000000000e+00 0.000000000000000e+00 0.000000000000000e+00
0.000000000000000e+00 0.000000000000000e+00 0.000000000000000e+00
0.000000000000000e+00 0.000000000000000e+00 0.000000000000000e+00
0.000000000000000e+00 0.000000000000000e+00 0.000000000000000e+00
0.000000000000000e+00 0.000000000000000e+00 0.000000000000000e+00
0.000000000000000e+00 0.000000000000000e+00 0.000000000000000e+00
0.000000000000000e+00 0.000000000000000e+00 0.000000000000000e+00
0.000000000000000e+00 0.000000000000000e+00 0.000000000000000e+00
0.000000000000000e+00 0.000000000000000e+00 0.000000000000000e+00
0.000000000000000e+00 0.000000000000000e+00 0.000000000000000e+00
0.000000000000000e+00 0.000000000000000e+00 0.000000000000000e+00
0.000000000000000e+00 0.000000000000000e+00 0.000000000000000e+00
0.000000000000000e+00 0.000000000000000e+00 0.000000000000000e+00
0.000000000000000e+00 0.000000000000000e+00 0.000000000000000e+00
0.000000000000000e+00 0.000000000000000e+00 0.000000000000000e+00
0.000000000000000e+00 0.000000000000000e+00 0.000000000000000e+00
0.000000000000000e+00 0.000000000000000e+00 0.000000000000000e+00
0.000000000000000e+00 0.000000000000000e+00 0.000000000000000e+00
0.000000000000000e+00 0.000000000000000e+00 0.000000000000000e+00
0.000000000000000e+00 0.000000000000000e+00 0.000000000000000e+00
0.000000000000000e+00 0.000000000000000e+00 0.000000000000000e+00
0.000000000000000e+00 0.000000000000000e+00 0.000000000000000e+00
0.000000000000000e+00 0.000000000000000e+00 0.000000000000000e+00
0.000000000000000e+00 0.000000000000000e+00 0.000000000000000e+00
0.000000000000000e+00 0.000000000000000e+00 0.000000000000000e+00
0.000000000000000e+00 0.000000000000000e+00 0.000000000000000e+00
0.000000000000000e+00 0.000000000000000e+00 0.000000000000000e+00
0.000000000000000e+00 0.000000000000000e+00 0.000000000000000e+00
0.000000000000000e+00 0.000000000000000e+00 0.000000000000000e+00
0.000000000000000e+00 0.000000000000000e+00 0.000000000000000e+00
0.000000000000000e+00 0.000000000000000e+00 0.000000000000000e+00
0.000000000000000e+00 0.000000000000000e+00 0.000000000000000e+00
0.000000000000000e+00 0.000000000000000e+00 0.000000000000000e+00
0.000000000000000e+00 0.000000000000000e+00 0.000000000000000e+00
0.000000000000000e+00 0.000000000000000e+00 0.000000000000000e+00
0.000000000000000e+00 0.000000000000000e+00 0.000000000000000e+00
0.000000000000000e+00 0.000000000000000e+00 0.000000000000000e+00
0.000000000000000e+00 0.000000000000000e+00 0.000000000000000e+00
0.000000000000000e+00 0.000000000000000e+00 0.000000000000000e+00
0.000000000000000e+00 0.000000000000000e+00 0.000000000000000e+00
0.000000000000000e+00 0.000000000000000e+00 0.000000000000000e+00
0.000000000000000e+00 0.000000000000000e+00 0.000000000000000e+00
0.000000000000000e+00 0.000000000000000e+00 0.000000000000000e+00
0.000000000000000e+00 0.000000000000000e+00 0.000000000000000e+00
0.000000000000000e+00 0.000000000000000e+00 0.000000000000000e+00
0.000000000000000e+00 0.000000000000000e+00 0.000000000000000e+00
0.000000000000000e+00 0.000000000000000e+00 0.000000000000000e+00
0.000000000000000e+00 0.000000000000000e+00 0.000000000000000e+00
0.000000000000000e+00 0.000000000000000e+00 0.000000000000000e+00
0.000000000000000e+00 0.000000000000000e+00 0.000000000000000e+00
0.000000000000000e+00 0.000000000000000e+00 0.000000000000000e+00
0.000000000000000e+00 0.000000000000000e+00 0.000000000000000e+00
0.000000000000000e+00 0.000000000000000e+00 0.000000000000000e+00
0.000000000000000e+00 0.000000000000000e+00 0.000000000000000e+00
0.000000000000000e+00 0.000000000000000e+00 0.000000000000000e+00
0.000000000000000e+00 0.000000000000000e+00 0.000000000000000e+00
0.000000000000000e+00 0.000000000000000e+00 0.000000000000000e+00
0.000000000000000e+00 0.000000000000000e+00 0.000000000000000e+00
0.000000000000000e+00 0.000000000000000e+00 0.000000000000000e+00
0.000000000000000e+00 0.000000000000000e+00 0.000000000000000e+00
0.000000000000000e+00 0.000000000000000e+00 0.000000000000000e+00
0.000000000000000e+00 0.000000000000000e+00 0.000000000000000e+00
0.000000000000000e+00 0.000000000000000e+00 0.000000000000000e+00
0.000000000000000e+00 0.000000000000000e+00 0.000000000000000e+00
0.000000000000000e+00 0.000000000000000e+00 0.000000000000000e+00
0.000000000000000e+00 0.000000000000000e+00 0.000000000000000e+00
0.000000000000000e+00 0.000000000000000e+00 0.000000000000000e+00
0.000000000000000e+00 0.000000000000000e+00 0.000000000000000e+00
0.000000000000000e+00 0.000000000000000e+00 0.000000000000000e+00
0.000000000000000e+00 0.000000000000000e+00 0.000000000000000e+00
0.000000000000000e+00 0.000000000000000e+00 0.000000000000000e+00
0.000000000000000e+00 0.000000000000000e+00 0.000000000000000e+00
0.000000000000000e+00 0.000000000000000e+00 0.000000000000000e+00
0.000000000000000e+00 0.000000000000000e+00 0.000000000000000e+00
0.000000000000000e+00 0.000000000000000e+00 0.000000000000000e+00
0.000000000000000e+00 0.000000000000000e+00 0.000000000000000e+00
0.000000000000000e+00 0.000000000000000e+00 0.000000000000000e+00
0.000000000000000e+00 0.000000000000000e+00 0.000000000000000e+00
0.000000000000000e+00 0.000000000000000e+00 0.000000000000000e+00
0.000000000000000e+00 0.000000000000000e+00 0.000000000000000e+00
0.000000000000000e+00 0.000000000000000e+00 0.000000000000000e+00
0.000000000000000e+00 0.000000000000000e+00 0.000000000000000e+00
0.000000000000000e+00 0.000000000000000e+00 0.000000000000000e+00
0.000000000000000e+00 0.000000000000000e+00 0.000000000000000e+00
0.000000000000000e+00 0.000000000000000e+00 0.000000000000000e+00
0.000000000000000e+00 0.000000000000000e+00 0.000000000000000e+00
0.000000000000000e+00 0.000000000000000e+00 0.000000000000000e+00
0.000000000000000e+00 0.000000000000000e+00 0.000000000000000e+00