<?xml version="1.0" ?> 
<!-- 
# vtk DataFile Version 3.0
-->
<VTKFile type="UnstructuredGrid" version="0.1" compressor="vtkZLibDataCompressor" byte_order="LittleEndian">
  <UnstructuredGrid>
    <FieldData>
      <DataArray type="Float64" Name="TIME" NumberOfTuples="1" format="ascii">
1.000000000000000e+00 
      </DataArray>
    </FieldData>

    <Piece NumberOfPoints="1014" NumberOfCells="46" >
      <Points>
        <DataArray type="Float64" NumberOfComponents="3" format="ascii">
-1.500000000000000e+00 3.000000000000000e+00 5.000000000000000e-01
-1.500000000000000e+00 3.000000000000000e+00 1.666666666665000e-01
-5.000000000000000e-01 3.000000000000000e+00 1.666666666665000e-01
-5.000000000000000e-01 3.000000000000000e+00 5.000000000000000e-01
-1.500000000000000e+00 2.500000000000000e+00 5.000000000000000e-01
-1.500000000000000e+00 2.500000000000000e+00 1.666666666665000e-01
-5.000000000000000e-01 2.638888888890000e+00 1.666666666665000e-01
-5.000000000000000e-01 2.638888888890000e+00 5.000000000000000e-01
-1.500000000000000e+00 3.000000000000000e+00 3.333333333331250e-01
-1.000000000000000e+00 3.000000000000000e+00 1.666666666665000e-01
-5.000000000000000e-01 3.000000000000000e+00 3.333333333331250e-01
-1.000000000000000e+00 3.000000000000000e+00 5.000000000000000e-01
-1.500000000000000e+00 2.500000000000000e+00 3.333333333331250e-01
-1.000000000000000e+00 2.586805555557500e+00 1.666666666665000e-01
-5.000000000000000e-01 2.638888888890000e+00 3.333333333331250e-01
-1.000000000000000e+00 2.586805555557500e+00 5.000000000000000e-01
-1.500000000000000e+00 2.750000000000000e+00 5.000000000000000e-01
-1.500000000000000e+00 2.750000000000000e+00 1.666666666665000e-01
-5.000000000000000e-01 2.812500000000000e+00 1.666666666665000e-01
-5.000000000000000e-01 2.812500000000000e+00 5.000000000000000e-01
-1.000000000000000e+00 2.789062500001250e+00 5.000000000000000e-01
-1.000000000000000e+00 2.789062500001250e+00 1.666666666665001e-01
-1.500000000000000e+00 2.750000000000000e+00 3.333333333331250e-01
-5.000000000000000e-01 2.812500000000000e+00 3.333333333331250e-01
-1.000000000000000e+00 3.000000000000000e+00 3.333333333331250e-01
-1.000000000000000e+00 2.586805555557500e+00 3.333333333331250e-01
-1.000000000000000e+00 2.789062500001250e+00 3.333333333331250e-01
-1.500000000000000e+00 3.000000000000000e+00 1.666666666665000e-01
-1.500000000000000e+00 3.000000000000000e+00 -1.666666666665000e-01
-5.000000000000000e-01 3.000000000000000e+00 -1.666666666665000e-01
-5.000000000000000e-01 3.000000000000000e+00 1.666666666665000e-01
-1.500000000000000e+00 2.500000000000000e+00 1.666666666665000e-01
-1.500000000000000e+00 2.500000000000000e+00 -1.666666666665000e-01
-5.000000000000000e-01 2.638888888890000e+00 -1.666666666665000e-01
-5.000000000000000e-01 2.638888888890000e+00 1.666666666665000e-01
-1.500000000000000e+00 3.000000000000000e+00 -2.775557561562891e-17
-1.000000000000000e+00 3.000000000000000e+00 -1.666666666665000e-01
-5.000000000000001e-01 3.000000000000000e+00 -2.775557561562891e-17
-1.000000000000000e+00 3.000000000000000e+00 1.666666666665000e-01
-1.500000000000000e+00 2.500000000000000e+00 -2.775557561562891e-17
-1.000000000000000e+00 2.586805555557500e+00 -1.666666666665000e-01
-5.000000000000000e-01 2.638888888890000e+00 -3.469446951953614e-17
-1.000000000000000e+00 2.586805555557500e+00 1.666666666665000e-01
-1.500000000000000e+00 2.750000000000000e+00 1.666666666665000e-01
-1.500000000000000e+00 2.750000000000000e+00 -1.666666666665000e-01
-5.000000000000000e-01 2.812500000000000e+00 -1.666666666665000e-01
-5.000000000000000e-01 2.812500000000000e+00 1.666666666665000e-01
-1.000000000000000e+00 2.789062500001250e+00 1.666666666665001e-01
-1.000000000000000e+00 2.789062500001250e+00 -1.666666666665000e-01
-1.500000000000000e+00 2.750000000000000e+00 -2.428612866367530e-17
-5.000000000000000e-01 2.812500000000000e+00 -2.688821387764051e-17
-1.000000000000000e+00 3.000000000000000e+00 -2.428612866367530e-17
-1.000000000000000e+00 2.586805555557500e+00 -2.645453300864631e-17
-1.000000000000000e+00 2.789062500001251e+00 -2.222614453595284e-17
-1.500000000000000e+00 3.000000000000000e+00 -1.666666666665000e-01
-1.500000000000000e+00 3.000000000000000e+00 -5.000000000000000e-01
-5.000000000000000e-01 3.000000000000000e+00 -5.000000000000000e-01
-5.000000000000000e-01 3.000000000000000e+00 -1.666666666665000e-01
-1.500000000000000e+00 2.500000000000000e+00 -1.666666666665000e-01
-1.500000000000000e+00 2.500000000000000e+00 -5.000000000000000e-01
-5.000000000000000e-01 2.638888888890000e+00 -5.000000000000000e-01
-5.000000000000000e-01 2.638888888890000e+00 -1.666666666665000e-01
-1.500000000000000e+00 3.000000000000000e+00 -3.333333333331250e-01
-1.000000000000000e+00 3.000000000000000e+00 -5.000000000000000e-01
-5.000000000000000e-01 3.000000000000001e+00 -3.333333333331250e-01
-1.000000000000000e+00 3.000000000000000e+00 -1.666666666665000e-01
-1.500000000000000e+00 2.500000000000000e+00 -3.333333333331250e-01
-1.000000000000000e+00 2.586805555557500e+00 -5.000000000000000e-01
-4.999999999999999e-01 2.638888888890000e+00 -3.333333333331250e-01
-1.000000000000000e+00 2.586805555557500e+00 -1.666666666665000e-01
-1.500000000000000e+00 2.750000000000000e+00 -1.666666666665000e-01
-1.500000000000000e+00 2.750000000000000e+00 -5.000000000000000e-01
-5.000000000000000e-01 2.812500000000000e+00 -5.000000000000000e-01
-5.000000000000000e-01 2.812500000000000e+00 -1.666666666665000e-01
-1.000000000000000e+00 2.789062500001250e+00 -1.666666666665000e-01
-1.000000000000000e+00 2.789062500001250e+00 -5.000000000000000e-01
-1.500000000000000e+00 2.750000000000000e+00 -3.333333333331250e-01
-5.000000000000000e-01 2.812500000000000e+00 -3.333333333331250e-01
-1.000000000000000e+00 3.000000000000000e+00 -3.333333333331250e-01
-1.000000000000000e+00 2.586805555557499e+00 -3.333333333331250e-01
-1.000000000000000e+00 2.789062500001251e+00 -3.333333333331249e-01
-5.000000000000000e-01 3.000000000000000e+00 5.000000000000000e-01
-5.000000000000000e-01 3.000000000000000e+00 1.666666666665000e-01
4.999999999999999e-01 3.000000000000000e+00 1.666666666665000e-01
4.999999999999999e-01 3.000000000000000e+00 5.000000000000000e-01
-5.000000000000000e-01 2.638888888890000e+00 5.000000000000000e-01
-5.000000000000000e-01 2.638888888890000e+00 1.666666666665000e-01
4.999999999999999e-01 2.638888888890000e+00 1.666666666665000e-01
4.999999999999999e-01 2.638888888890000e+00 5.000000000000000e-01
-5.000000000000000e-01 3.000000000000000e+00 3.333333333331250e-01
8.326672684688674e-17 3.000000000000000e+00 1.666666666665000e-01
4.999999999999999e-01 3.000000000000000e+00 3.333333333331250e-01
8.326672684688674e-17 3.000000000000000e+00 5.000000000000001e-01
-5.000000000000000e-01 2.638888888890000e+00 3.333333333331250e-01
9.714451465470120e-17 2.656250000000000e+00 1.666666666665000e-01
4.999999999999999e-01 2.638888888890000e+00 3.333333333331250e-01
8.326672684688674e-17 2.656250000000000e+00 5.000000000000001e-01
-5.000000000000000e-01 2.812500000000000e+00 5.000000000000000e-01
-5.000000000000000e-01 2.812500000000000e+00 1.666666666665000e-01
4.999999999999999e-01 2.812500000000000e+00 1.666666666665000e-01
4.999999999999999e-01 2.812500000000000e+00 5.000000000000000e-01
6.591949208711867e-17 2.820312499998751e+00 5.000000000000001e-01
6.765421556309548e-17 2.820312499998750e+00 1.666666666665000e-01
-5.000000000000000e-01 2.812500000000000e+00 3.333333333331250e-01
4.999999999999999e-01 2.812500000000000e+00 3.333333333331250e-01
7.632783294297951e-17 3.000000000000000e+00 3.333333333331251e-01
7.285838599102590e-17 2.656250000000000e+00 3.333333333331250e-01
6.158268339717665e-17 2.820312499998750e+00 3.333333333331251e-01
-5.000000000000000e-01 3.000000000000000e+00 1.666666666665000e-01
-5.000000000000000e-01 3.000000000000000e+00 -1.666666666665000e-01
4.999999999999999e-01 3.000000000000000e+00 -1.666666666665000e-01
4.999999999999999e-01 3.000000000000000e+00 1.666666666665000e-01
-5.000000000000000e-01 2.638888888890000e+00 1.666666666665000e-01
-5.000000000000000e-01 2.638888888890000e+00 -1.666666666665000e-01
4.999999999999999e-01 2.638888888890000e+00 -1.666666666665000e-01
4.999999999999999e-01 2.638888888890000e+00 1.666666666665000e-01
-5.000000000000001e-01 3.000000000000000e+00 -2.775557561562891e-17
6.938893903907228e-17 3.000000000000000e+00 -1.666666666665000e-01
4.999999999999999e-01 3.000000000000000e+00 -2.428612866367530e-17
8.326672684688674e-17 3.000000000000000e+00 1.666666666665000e-01
-5.000000000000000e-01 2.638888888890000e+00 -3.469446951953614e-17
7.632783294297951e-17 2.656250000000000e+00 -1.666666666665000e-01
4.999999999999999e-01 2.638888888890000e+00 -2.428612866367530e-17
9.714451465470120e-17 2.656250000000000e+00 1.666666666665000e-01
-5.000000000000000e-01 2.812500000000000e+00 1.666666666665000e-01
-5.000000000000000e-01 2.812500000000000e+00 -1.666666666665000e-01
4.999999999999999e-01 2.812500000000000e+00 -1.666666666665000e-01
4.999999999999999e-01 2.812500000000000e+00 1.666666666665000e-01
6.765421556309548e-17 2.820312499998750e+00 1.666666666665000e-01
7.112366251504909e-17 2.820312499998750e+00 -1.666666666665000e-01
-5.000000000000000e-01 2.812500000000000e+00 -2.688821387764051e-17
5.000000000000000e-01 2.812500000000000e+00 -2.385244779468110e-17
9.367506770274758e-17 3.000000000000000e+00 -2.775557561562891e-17
8.847089727481716e-17 2.656250000000000e+00 -2.775557561562891e-17
8.630249292984615e-17 2.820312499998749e+00 -2.602085213965211e-17
-5.000000000000000e-01 3.000000000000000e+00 -1.666666666665000e-01
-5.000000000000000e-01 3.000000000000000e+00 -5.000000000000000e-01
4.999999999999999e-01 3.000000000000000e+00 -5.000000000000000e-01
4.999999999999999e-01 3.000000000000000e+00 -1.666666666665000e-01
-5.000000000000000e-01 2.638888888890000e+00 -1.666666666665000e-01
-5.000000000000000e-01 2.638888888890000e+00 -5.000000000000000e-01
[...]
  <PointData>
        <DataArray type="Float64" Name="displacement" NumberOfComponents="3" format="ascii">
0.000000000000000e+00 -3.075232396565845e-02 3.018820041199057e-03
0.000000000000000e+00 -3.076031285557891e-02 2.012604941370759e-03
3.040932189008644e-03 -3.077158685613177e-02 2.015037977080873e-03
3.040203616138429e-03 -3.076417813236981e-02 3.022271490593833e-03
0.000000000000000e+00 -2.567045479137048e-02 3.032874293113700e-03
0.000000000000000e+00 -2.567950983875333e-02 2.024031925873269e-03
3.037450718030127e-03 -2.710412503960362e-02 2.023122589964852e-03
3.036718024481764e-03 -2.709565825738347e-02 3.031288812861249e-03
0.000000000000000e+00 -3.075662847693076e-02 2.515737519462974e-03
1.522311720204718e-03 -3.076467761123853e-02 2.013464281708448e-03
3.040721900646023e-03 -3.076816713860155e-02 2.518652668974281e-03
1.521539224019727e-03 -3.075690869931408e-02 3.020095946866533e-03
0.000000000000000e+00 -2.567602065844692e-02 2.528718654018749e-03
1.519065710077861e-03 -2.656786757545599e-02 2.022747213725737e-03
3.037236436387892e-03 -2.710089021842436e-02 2.527644973569356e-03
1.518187617755062e-03 -2.655886070682609e-02 3.030761850238803e-03
0.000000000000000e+00 -2.821200841170371e-02 3.025432195864516e-03
0.000000000000000e+00 -2.822014154137674e-02 2.017529249471611e-03
3.038863582078395e-03 -2.886732896561429e-02 2.018673756389627e-03
3.038166489805665e-03 -2.885960714698304e-02 3.026778364874400e-03
1.519522833984386e-03 -2.861407924613396e-02 3.025416169273099e-03
1.520270410765947e-03 -2.862202730194836e-02 2.017594526166671e-03
0.000000000000000e+00 -2.821639628532822e-02 2.521378902735598e-03
3.038610597654761e-03 -2.886383742449677e-02 2.522707693368139e-03
1.522076170375184e-03 -3.076107933480569e-02 2.516798605471369e-03
1.518827444264328e-03 -2.656436474851150e-02 2.527106220495668e-03
1.519993515109057e-03 -2.861834278895716e-02 2.521433806646823e-03
0.000000000000000e+00 -3.076031285557891e-02 2.012604941370759e-03
0.000000000000000e+00 -3.076539595569892e-02 1.006411914948927e-03
3.040987743380056e-03 -3.077623279964216e-02 1.007751789159729e-03
3.040932189008644e-03 -3.077158685613177e-02 2.015037977080873e-03
0.000000000000000e+00 -2.567950983875333e-02 2.024031925873269e-03
0.000000000000000e+00 -2.568300524956092e-02 1.012728133498683e-03
3.037521907642919e-03 -2.710764060177143e-02 1.012022215925088e-03
3.037450718030127e-03 -2.710412503960362e-02 2.023122589964852e-03
0.000000000000000e+00 -3.076327078677695e-02 1.509477881630161e-03
1.522402243949808e-03 -3.076964896688429e-02 1.006873389804291e-03
3.040974222746566e-03 -3.077431587859910e-02 1.511410116585419e-03
1.522311720204718e-03 -3.076467761123853e-02 2.013464281708448e-03
0.000000000000000e+00 -2.568160910991593e-02 1.518729841444249e-03
1.519117977327388e-03 -2.657161203998966e-02 1.011975037138570e-03
3.037499623688469e-03 -2.710612205576979e-02 1.517866668574507e-03
1.519065710077861e-03 -2.656786757545599e-02 2.022747213725737e-03
0.000000000000000e+00 -2.822014154137674e-02 2.017529249471611e-03
0.000000000000000e+00 -2.822499771173829e-02 1.009267306606635e-03
3.039032491394420e-03 -2.887176825948854e-02 1.009786112450605e-03
3.038863582078395e-03 -2.886732896561429e-02 2.018673756389627e-03
1.520270410765947e-03 -2.862202730194836e-02 2.017594526166671e-03
1.520466523615063e-03 -2.862684547992312e-02 1.009267604858945e-03
0.000000000000000e+00 -2.822306755759739e-02 1.513589847089608e-03
3.038984520762852e-03 -2.886999987554256e-02 1.514444060547552e-03
1.522376776924277e-03 -3.076757649860171e-02 1.510140151259009e-03
1.519097519623076e-03 -2.657005480137642e-02 1.517698821937280e-03
1.520409440439725e-03 -2.862492934547966e-02 1.513628926136194e-03
0.000000000000000e+00 -3.076539595569892e-02 1.006411914948927e-03
0.000000000000000e+00 -3.076703953669968e-02 0.000000000000000e+00
3.040981438815411e-03 -3.077764549709508e-02 0.000000000000000e+00
3.040987743380056e-03 -3.077623279964216e-02 1.007751789159729e-03
0.000000000000000e+00 -2.568300524956092e-02 1.012728133498683e-03
0.000000000000000e+00 -2.568410539425936e-02 0.000000000000000e+00
3.037560877678705e-03 -2.710901379518058e-02 0.000000000000000e+00
3.037521907642919e-03 -2.710764060177143e-02 1.012022215925088e-03
0.000000000000000e+00 -3.076666124484109e-02 5.032912261359203e-04
1.522409519038524e-03 -3.077121738880636e-02 0.000000000000000e+00
3.040985799279533e-03 -3.077734140917086e-02 5.039770614243936e-04
1.522402243949808e-03 -3.076964896688429e-02 1.006873389804291e-03
0.000000000000000e+00 -2.568380257267863e-02 5.063703402720934e-04
1.519172120684357e-03 -2.657292443722647e-02 0.000000000000000e+00
3.037536136703118e-03 -2.710862355558342e-02 5.059473028043387e-04
1.519117977327388e-03 -2.657161203998966e-02 1.011975037138570e-03
0.000000000000000e+00 -2.822499771173829e-02 1.009267306606635e-03
0.000000000000000e+00 -2.822636679748341e-02 0.000000000000000e+00
3.039030384878898e-03 -2.887306043298598e-02 0.000000000000000e+00
3.039032491394420e-03 -2.887176825948854e-02 1.009786112450605e-03
1.520466523615063e-03 -2.862684547992312e-02 1.009267604858945e-03
1.520465905894715e-03 -2.862821606597691e-02 0.000000000000000e+00
0.000000000000000e+00 -2.822605609472511e-02 5.046934251882473e-04
3.039037708068101e-03 -2.887274986334032e-02 5.049035472257631e-04
1.522406898811247e-03 -3.077087070173596e-02 5.035360038745400e-04
1.519138904058560e-03 -2.657256126177868e-02 5.059505372020097e-04
1.520474424148035e-03 -2.862789971638635e-02 5.046711126938917e-04
3.040203616138429e-03 -3.076417813236981e-02 3.022271490593833e-03
3.040932189008644e-03 -3.077158685613177e-02 2.015037977080873e-03
6.068547665998533e-03 -3.077397627754839e-02 2.016499551290126e-03
6.068890371808340e-03 -3.076787563899565e-02 3.024788941311416e-03
3.036718024481764e-03 -2.709565825738347e-02 3.031288812861249e-03
3.037450718030127e-03 -2.710412503960362e-02 2.023122589964852e-03
6.074594728948833e-03 -2.710728958074065e-02 2.023341054298798e-03
6.075077647094800e-03 -2.709992417070180e-02 3.031684134869594e-03
3.040721900646023e-03 -3.076816713860155e-02 2.518652668974281e-03
4.556223479807883e-03 -3.077627495624095e-02 2.016368807078083e-03
6.068731306236070e-03 -3.077106348321973e-02 2.520617142645463e-03
4.555988793140004e-03 -3.076940840040418e-02 3.024213534651836e-03
3.037236436387892e-03 -2.710089021842436e-02 2.527644973569356e-03
4.555759049204538e-03 -2.728501983882294e-02 2.023779916264558e-03
6.074734923073705e-03 -2.710444008084977e-02 2.527938488925157e-03
4.555658830741284e-03 -2.727722141976718e-02 3.032310976048895e-03
3.038166489805665e-03 -2.885960714698304e-02 3.026778364874400e-03
3.038863582078395e-03 -2.886732896561429e-02 2.018673756389627e-03
6.071364568732231e-03 -2.887023868102114e-02 2.019551007757962e-03
6.071627088991389e-03 -2.886375466669980e-02 3.028181764831088e-03
4.555633672971959e-03 -2.894427224394149e-02 3.028154868212403e-03
4.555866104534704e-03 -2.895156120207255e-02 2.019686172725162e-03
3.038610597654761e-03 -2.886383742449677e-02 2.522707693368139e-03
6.071512517676755e-03 -2.886721201685735e-02 2.523845425275350e-03
4.556189507152869e-03 -3.077309436313428e-02 2.520269063517162e-03
4.555710941085938e-03 -2.728208576394921e-02 2.528525525594341e-03
4.555800510792274e-03 -2.894831542333441e-02 2.523933815408123e-03
3.040932189008644e-03 -3.077158685613177e-02 2.015037977080873e-03
3.040987743380056e-03 -3.077623279964216e-02 1.007751789159729e-03
6.068238736301288e-03 -3.077814929994783e-02 1.008391299299239e-03
6.068547665998533e-03 -3.077397627754839e-02 2.016499551290126e-03
3.037450718030127e-03 -2.710412503960362e-02 2.023122589964852e-03
3.037521907642919e-03 -2.710764060177143e-02 1.012022215925088e-03
6.074497108560142e-03 -2.711051003222827e-02 1.012133760745273e-03
6.074594728948833e-03 -2.710728958074065e-02 2.023341054298798e-03
3.040974222746566e-03 -3.077431587859910e-02 1.511410116585419e-03
4.556139055195598e-03 -3.078058654649063e-02 1.008455097497345e-03
6.068372469789136e-03 -3.077640716783872e-02 1.512427244442389e-03
4.556223479807883e-03 -3.077627495624095e-02 2.016368807078083e-03
3.037499623688469e-03 -2.710612205576979e-02 1.517866668574507e-03
4.555789161277026e-03 -2.728822768311479e-02 1.012273760310051e-03
6.074550859263279e-03 -2.710910284099373e-02 1.518027566426758e-03
4.555759049204538e-03 -2.728501983882294e-02 2.023779916264558e-03
3.038863582078395e-03 -2.886732896561429e-02 2.018673756389627e-03
3.039032491394420e-03 -2.887176825948854e-02 1.009786112450605e-03
6.071112418085817e-03 -2.887428327260745e-02 1.010193962494107e-03
6.071364568732231e-03 -2.887023868102114e-02 2.019551007757962e-03
4.555866104534704e-03 -2.895156120207255e-02 2.019686172725162e-03
4.555860317998022e-03 -2.895562715539612e-02 1.010276881092148e-03
3.038984520762852e-03 -2.886999987554256e-02 1.514444060547552e-03
6.071219212190893e-03 -2.887265548950118e-02 1.515075018192892e-03
4.556177674642854e-03 -3.077881680795086e-02 1.512451305137257e-03
4.555789630725447e-03 -2.728680627000568e-02 1.518290532892232e-03
4.555872143752278e-03 -2.895400122960882e-02 1.515203381005759e-03
3.040987743380056e-03 -3.077623279964216e-02 1.007751789159729e-03
3.040981438815411e-03 -3.077764549709508e-02 0.000000000000000e+00
6.068128856545145e-03 -3.077945529729480e-02 0.000000000000000e+00
6.068238736301288e-03 -3.077814929994783e-02 1.008391299299239e-03
3.037521907642919e-03 -2.710764060177143e-02 1.012022215925088e-03
3.037560877678705e-03 -2.710901379518058e-02 0.000000000000000e+00
6.074412018480706e-03 -2.711180662718712e-02 0.000000000000000e+00
6.074497108560142e-03 -2.711051003222827e-02 1.012133760745273e-03
3.040985799279533e-03 -3.077734140917086e-02 5.039770614243936e-04
4.556094853320880e-03 -3.078187456533488e-02 0.000000000000000e+00
6.068154765298718e-03 -3.077917467579383e-02 5.042845923290013e-04
4.556139055195598e-03 -3.078058654649063e-02 1.008455097497345e-03
3.037536136703118e-03 -2.710862355558342e-02 5.059473028043387e-04
4.555772200453879e-03 -2.728957426090602e-02 0.000000000000000e+00
6.074446490434318e-03 -2.711143625933063e-02 5.060083382658509e-04
4.555789161277026e-03 -2.728822768311479e-02 1.012273760310051e-03
3.039032491394420e-03 -2.887176825948854e-02 1.009786112450605e-03
3.039030384878898e-03 -2.887306043298598e-02 0.000000000000000e+00
6.071033811503534e-03 -2.887549326070796e-02 0.000000000000000e+00
6.071112418085817e-03 -2.887428327260745e-02 1.010193962494107e-03
4.555860317998022e-03 -2.895562715539612e-02 1.010276881092148e-03
4.555838124299516e-03 -2.895683959804990e-02 0.000000000000000e+00
3.039037708068101e-03 -2.887274986334032e-02 5.049035472257631e-04
6.071049009996775e-03 -2.887520240484228e-02 5.051036774877591e-04
4.556110491432731e-03 -3.078160039217904e-02 5.043235428782807e-04
4.555776923604696e-03 -2.728918377959875e-02 5.060650866389842e-04
4.555844390453309e-03 -2.895653970351598e-02 5.051334838137543e-04
6.068890371808340e-03 -3.076787563899565e-02 3.024788941311416e-03
6.068547665998533e-03 -3.077397627754839e-02 2.016499551290126e-03
9.089905516699075e-03 -3.074334628681777e-02 2.015648096943332e-03
9.090262128272705e-03 -3.073807841503825e-02 3.024198411477343e-03
6.075077647094800e-03 -2.709992417070180e-02 3.031684134869594e-03
6.074594728948833e-03 -2.710728958074065e-02 2.023341054298798e-03
9.110596631302726e-03 -2.566606002849642e-02 2.023708837344181e-03
9.111601514160116e-03 -2.565934200887448e-02 3.032876885688610e-03
6.068731306236070e-03 -3.077106348321973e-02 2.520617142645463e-03
7.579307445616848e-03 -3.076342274581903e-02 2.016052038363157e-03
9.090165567589896e-03 -3.074083319334922e-02 2.519911369321423e-03
7.579963200675293e-03 -3.075796919494132e-02 3.024587352833084e-03
6.074734923073705e-03 -2.710444008084977e-02 2.527938488925157e-03
7.593144881551925e-03 -2.656846079931306e-02 2.022939522010898e-03
9.111020745621442e-03 -2.566343806992764e-02 2.528490436937079e-03
7.594037524561387e-03 -2.656141490285001e-02 3.031256650892962e-03
6.071627088991389e-03 -2.886375466669980e-02 3.028181764831088e-03
6.071364568732231e-03 -2.887023868102114e-02 2.019551007757962e-03
9.100449340845565e-03 -2.820497271471405e-02 2.018967146157806e-03
9.100985949465767e-03 -2.819940779444363e-02 3.028262437266808e-03
7.586595070332983e-03 -2.861611349146488e-02 3.027877979569532e-03
7.586008979294633e-03 -2.862187223954125e-02 2.019050564548638e-03
6.071512517676755e-03 -2.886721201685735e-02 2.523845425275350e-03
9.100821542770485e-03 -2.820227301535127e-02 2.523466785462216e-03
7.579629319260218e-03 -3.076075094468303e-02 2.520297660024959e-03
7.593455739026953e-03 -2.656565642941344e-02 2.527416060420002e-03
7.586326300829170e-03 -2.861903021191364e-02 2.523377942212491e-03
6.068547665998533e-03 -3.077397627754839e-02 2.016499551290126e-03
6.068238736301288e-03 -3.077814929994783e-02 1.008391299299239e-03
9.089333833097641e-03 -3.074707468299383e-02 1.007653731586003e-03
9.089905516699075e-03 -3.074334628681777e-02 2.015648096943332e-03
6.074594728948833e-03 -2.710728958074065e-02 2.023341054298798e-03
6.074497108560142e-03 -2.711051003222827e-02 1.012133760745273e-03
9.110146711330820e-03 -2.566875552829018e-02 1.012497642918361e-03
9.110596631302726e-03 -2.566606002849642e-02 2.023708837344181e-03
6.068372469789136e-03 -3.077640716783872e-02 1.512427244442389e-03
7.578799443375760e-03 -3.076746427409012e-02 1.007983231637948e-03
9.089591697801302e-03 -3.074547451138546e-02 1.511523811859412e-03
7.579307445616848e-03 -3.076342274581903e-02 2.016052038363157e-03
6.074550859263279e-03 -2.710910284099373e-02 1.518027566426758e-03
7.592873656306622e-03 -2.657163639774302e-02 1.012056845518721e-03
9.110311257705382e-03 -2.566767635710815e-02 1.518416451230935e-03
7.593144881551925e-03 -2.656846079931306e-02 2.022939522010898e-03
6.071364568732231e-03 -2.887023868102114e-02 2.019551007757962e-03
6.071112418085817e-03 -2.887428327260745e-02 1.010193962494107e-03
9.099780943910523e-03 -2.820874542531786e-02 1.009800318088449e-03
9.100449340845565e-03 -2.820497271471405e-02 2.018967146157806e-03
7.586008979294633e-03 -2.862187223954125e-02 2.019050564548638e-03
7.585511667956939e-03 -2.862592617471665e-02 1.009910670283776e-03
6.071219212190893e-03 -2.887265548950118e-02 1.515075018192892e-03
9.100044191841935e-03 -2.820722436166019e-02 1.514499622613308e-03
7.579022510177814e-03 -3.076574154130336e-02 1.511923043637535e-03
7.592989378517935e-03 -2.657029759470439e-02 1.517821596699265e-03
7.585713852685262e-03 -2.862428806394363e-02 1.514645067073794e-03
6.068238736301288e-03 -3.077814929994783e-02 1.008391299299239e-03
6.068128856545145e-03 -3.077945529729480e-02 0.000000000000000e+00
9.089035749170717e-03 -3.074834610650241e-02 0.000000000000000e+00
9.089333833097641e-03 -3.074707468299383e-02 1.007653731586003e-03
6.074497108560142e-03 -2.711051003222827e-02 1.012133760745273e-03
6.074412018480706e-03 -2.711180662718712e-02 0.000000000000000e+00
9.110006329802939e-03 -2.566961819203443e-02 0.000000000000000e+00
9.110146711330820e-03 -2.566875552829018e-02 1.012497642918361e-03
6.068154765298718e-03 -3.077917467579383e-02 5.042845923290013e-04
7.578602728493371e-03 -3.076880628150670e-02 0.000000000000000e+00
9.089144368312610e-03 -3.074806061143534e-02 5.038688097554261e-04
7.578799443375760e-03 -3.076746427409012e-02 1.007983231637948e-03
6.074446490434318e-03 -2.711143625933063e-02 5.060083382658509e-04
7.592737629137593e-03 -2.657279367667841e-02 0.000000000000000e+00
9.110059549567267e-03 -2.566937649045984e-02 5.062572224826532e-04
7.592873656306622e-03 -2.657163639774302e-02 1.012056845518721e-03
6.071112418085817e-03 -2.887428327260745e-02 1.010193962494107e-03
6.071033811503534e-03 -2.887549326070796e-02 0.000000000000000e+00
9.099625008794729e-03 -2.820984301493100e-02 0.000000000000000e+00
9.099780943910523e-03 -2.820874542531786e-02 1.009800318088449e-03
7.585511667956939e-03 -2.862592617471665e-02 1.009910670283776e-03
7.585376441374194e-03 -2.862712615499129e-02 0.000000000000000e+00
6.071049009996775e-03 -2.887520240484228e-02 5.051036774877591e-04
9.099645811433925e-03 -2.820959770872788e-02 5.049426410588176e-04
7.578654198413379e-03 -3.076851212666324e-02 5.040648134101759e-04
7.592791733614376e-03 -2.657247062090801e-02 5.059985520815401e-04
7.585400004417357e-03 -2.862685079676449e-02 5.049835794890293e-04
0.000000000000000e+00 -2.567045479137048e-02 3.032874293113700e-03
0.000000000000000e+00 -2.567950983875333e-02 2.024031925873269e-03
3.037450718030127e-03 -2.710412503960362e-02 2.023122589964852e-03
3.036718024481764e-03 -2.709565825738347e-02 3.031288812861249e-03
0.000000000000000e+00 -2.058914203374614e-02 3.058217195801378e-03
0.000000000000000e+00 -2.059088098219370e-02 2.039604364179726e-03
3.033536773529914e-03 -2.399938055490433e-02 2.033891681562096e-03
3.033176611750843e-03 -2.399536690099896e-02 3.049628257500347e-03
0.000000000000000e+00 -2.567602065844692e-02 2.528718654018749e-03
1.519065710077861e-03 -2.656786757545599e-02 2.022747213725737e-03
3.037236436387892e-03 -2.710089021842436e-02 2.527644973569356e-03
1.518187617755062e-03 -2.655886070682609e-02 3.030761850238803e-03
0.000000000000000e+00 -2.059061910493463e-02 2.549509040640201e-03
1.515926341699593e-03 -2.272240879466547e-02 2.036194256858168e-03
3.033543464282864e-03 -2.399820817884101e-02 2.542312192932877e-03
1.515430592623441e-03 -2.271855479947146e-02 3.052791705940088e-03
0.000000000000000e+00 -2.312904027520316e-02 3.043138553056142e-03
0.000000000000000e+00 -2.313692167619640e-02 2.031570965725913e-03
3.035929735601435e-03 -2.548160044655015e-02 2.028242543218394e-03
3.035255603889299e-03 -2.547376649743435e-02 3.038129791441019e-03
1.517001046808999e-03 -2.459307768880157e-02 3.038948519286760e-03
1.517887669826923e-03 -2.460154566271162e-02 2.028940929063589e-03
0.000000000000000e+00 -2.313444659780849e-02 2.538010718318321e-03
3.035810398159299e-03 -2.547909173250040e-02 2.534000982462684e-03
1.518827444264328e-03 -2.656436474851150e-02 2.527106220495668e-03
1.515951764501835e-03 -2.272136520514686e-02 2.545151237376662e-03
1.517754635006690e-03 -2.459881546879823e-02 2.534712984808688e-03
0.000000000000000e+00 -2.567950983875333e-02 2.024031925873269e-03
0.000000000000000e+00 -2.568300524956092e-02 1.012728133498683e-03
3.037521907642919e-03 -2.710764060177143e-02 1.012022215925088e-03
3.037450718030127e-03 -2.710412503960362e-02 2.023122589964852e-03
0.000000000000000e+00 -2.059088098219370e-02 2.039604364179726e-03
0.000000000000000e+00 -2.059132473970945e-02 1.019580156421827e-03
3.033384189635860e-03 -2.400131483318601e-02 1.016811857038987e-03
3.033536773529914e-03 -2.399938055490433e-02 2.033891681562096e-03
0.000000000000000e+00 -2.568160910991593e-02 1.518729841444249e-03
1.519117977327388e-03 -2.657161203998966e-02 1.011975037138570e-03
3.037499623688469e-03 -2.710612205576979e-02 1.517866668574507e-03
1.519065710077861e-03 -2.656786757545599e-02 2.022747213725737e-03
0.000000000000000e+00 -2.059081906171982e-02 1.529346843685190e-03
1.515695072472139e-03 -2.272397060048237e-02 1.017937796043564e-03
3.033401896358683e-03 -2.400003308706173e-02 1.525135358045100e-03
1.515926341699593e-03 -2.272240879466547e-02 2.036194256858168e-03
0.000000000000000e+00 -2.313692167619640e-02 2.031570965725913e-03
0.000000000000000e+00 -2.313869033645517e-02 1.016322911484079e-03
3.035843353323937e-03 -2.548407955137565e-02 1.014388122986706e-03
3.035929735601435e-03 -2.548160044655015e-02 2.028242543218394e-03
1.517887669826923e-03 -2.460154566271162e-02 2.028940929063589e-03
1.517734771481506e-03 -2.460397747190303e-02 1.014897747310874e-03
0.000000000000000e+00 -2.313786856940069e-02 1.524211096405603e-03
3.035858944546163e-03 -2.548277044952733e-02 1.521492310971838e-03
1.519097519623076e-03 -2.657005480137642e-02 1.517698821937280e-03
1.515719164321450e-03 -2.272287933683980e-02 1.526822523406503e-03