<?xml version="1.0" ?> 
<!-- 
# vtk DataFile Version 3.0
-->
<VTKFile type="UnstructuredGrid" version="0.1" compressor="vtkZLibDataCompressor" byte_order="LittleEndian">
  <UnstructuredGrid>
    <FieldData>
      <DataArray type="Float64" Name="TIME" NumberOfTuples="1" format="ascii">
1.000000000000000e+00 
      </DataArray>
    </FieldData>

    <Piece NumberOfPoints="560" NumberOfCells="56" >
      <Points>
        <DataArray type="Float64" NumberOfComponents="3" format="ascii">
0.000000000000000e+00 0.000000000000000e+00 1.000000000000000e+00
0.000000000000000e+00 0.000000000000000e+00 0.000000000000000e+00
0.000000000000000e+00 5.000000000000000e-01 5.000000000000000e-01
5.000000000000000e-01 0.000000000000000e+00 5.000000000000000e-01
0.000000000000000e+00 0.000000000000000e+00 5.000000000000000e-01
0.000000000000000e+00 2.500000000000000e-01 2.500000000000000e-01
0.000000000000000e+00 2.500000000000000e-01 7.500000000000000e-01
2.500000000000000e-01 0.000000000000000e+00 7.500000000000000e-01
2.500000000000000e-01 0.000000000000000e+00 2.500000000000000e-01
2.500000000000000e-01 2.500000000000000e-01 5.000000000000000e-01
0.000000000000000e+00 0.000000000000000e+00 0.000000000000000e+00
0.000000000000000e+00 1.000000000000000e+00 0.000000000000000e+00
0.000000000000000e+00 5.000000000000000e-01 5.000000000000000e-01
5.000000000000000e-01 5.000000000000000e-01 0.000000000000000e+00
0.000000000000000e+00 5.000000000000000e-01 0.000000000000000e+00
0.000000000000000e+00 7.500000000000000e-01 2.500000000000000e-01
0.000000000000000e+00 2.500000000000000e-01 2.500000000000000e-01
2.500000000000000e-01 2.500000000000000e-01 0.000000000000000e+00
2.500000000000000e-01 7.500000000000000e-01 0.000000000000000e+00
2.500000000000000e-01 5.000000000000000e-01 2.500000000000000e-01
0.000000000000000e+00 1.000000000000000e+00 0.000000000000000e+00
0.000000000000000e+00 1.000000000000000e+00 1.000000000000000e+00
0.000000000000000e+00 5.000000000000000e-01 5.000000000000000e-01
5.000000000000000e-01 1.000000000000000e+00 5.000000000000000e-01
0.000000000000000e+00 1.000000000000000e+00 5.000000000000000e-01
0.000000000000000e+00 7.500000000000000e-01 7.500000000000000e-01
0.000000000000000e+00 7.500000000000000e-01 2.500000000000000e-01
2.500000000000000e-01 1.000000000000000e+00 2.500000000000000e-01
2.500000000000000e-01 1.000000000000000e+00 7.500000000000000e-01
2.500000000000000e-01 7.500000000000000e-01 5.000000000000000e-01
0.000000000000000e+00 1.000000000000000e+00 1.000000000000000e+00
0.000000000000000e+00 0.000000000000000e+00 1.000000000000000e+00
0.000000000000000e+00 5.000000000000000e-01 5.000000000000000e-01
5.000000000000000e-01 5.000000000000000e-01 1.000000000000000e+00
0.000000000000000e+00 5.000000000000000e-01 1.000000000000000e+00
0.000000000000000e+00 2.500000000000000e-01 7.500000000000000e-01
0.000000000000000e+00 7.500000000000000e-01 7.500000000000000e-01
2.500000000000000e-01 7.500000000000000e-01 1.000000000000000e+00
2.500000000000000e-01 2.500000000000000e-01 1.000000000000000e+00
2.500000000000000e-01 5.000000000000000e-01 7.500000000000000e-01
0.000000000000000e+00 0.000000000000000e+00 1.000000000000000e+00
1.000000000000000e+00 0.000000000000000e+00 1.000000000000000e+00
5.000000000000000e-01 0.000000000000000e+00 5.000000000000000e-01
5.000000000000000e-01 5.000000000000000e-01 1.000000000000000e+00
5.000000000000000e-01 0.000000000000000e+00 1.000000000000000e+00
7.500000000000000e-01 0.000000000000000e+00 7.500000000000000e-01
2.500000000000000e-01 0.000000000000000e+00 7.500000000000000e-01
2.500000000000000e-01 2.500000000000000e-01 1.000000000000000e+00
7.500000000000000e-01 2.500000000000000e-01 1.000000000000000e+00
5.000000000000000e-01 2.500000000000000e-01 7.500000000000000e-01
0.000000000000000e+00 0.000000000000000e+00 0.000000000000000e+00
1.000000000000000e+00 0.000000000000000e+00 0.000000000000000e+00
5.000000000000000e-01 5.000000000000000e-01 0.000000000000000e+00
5.000000000000000e-01 0.000000000000000e+00 5.000000000000000e-01
5.000000000000000e-01 0.000000000000000e+00 0.000000000000000e+00
7.500000000000000e-01 2.500000000000000e-01 0.000000000000000e+00
2.500000000000000e-01 2.500000000000000e-01 0.000000000000000e+00
2.500000000000000e-01 0.000000000000000e+00 2.500000000000000e-01
7.500000000000000e-01 0.000000000000000e+00 2.500000000000000e-01
5.000000000000000e-01 2.500000000000000e-01 2.500000000000000e-01
0.000000000000000e+00 1.000000000000000e+00 0.000000000000000e+00
1.000000000000000e+00 1.000000000000000e+00 0.000000000000000e+00
5.000000000000000e-01 1.000000000000000e+00 5.000000000000000e-01
5.000000000000000e-01 5.000000000000000e-01 0.000000000000000e+00
5.000000000000000e-01 1.000000000000000e+00 0.000000000000000e+00
7.500000000000000e-01 1.000000000000000e+00 2.500000000000000e-01
2.500000000000000e-01 1.000000000000000e+00 2.500000000000000e-01
2.500000000000000e-01 7.500000000000000e-01 0.000000000000000e+00
7.500000000000000e-01 7.500000000000000e-01 0.000000000000000e+00
5.000000000000000e-01 7.500000000000000e-01 2.500000000000000e-01
0.000000000000000e+00 1.000000000000000e+00 1.000000000000000e+00
1.000000000000000e+00 1.000000000000000e+00 1.000000000000000e+00
5.000000000000000e-01 5.000000000000000e-01 1.000000000000000e+00
5.000000000000000e-01 1.000000000000000e+00 5.000000000000000e-01
5.000000000000000e-01 1.000000000000000e+00 1.000000000000000e+00
7.500000000000000e-01 7.500000000000000e-01 1.000000000000000e+00
2.500000000000000e-01 7.500000000000000e-01 1.000000000000000e+00
2.500000000000000e-01 1.000000000000000e+00 7.500000000000000e-01
7.500000000000000e-01 1.000000000000000e+00 7.500000000000000e-01
5.000000000000000e-01 7.500000000000000e-01 7.500000000000000e-01
1.000000000000000e+00 0.000000000000000e+00 1.000000000000000e+00
1.000000000000000e+00 0.000000000000000e+00 0.000000000000000e+00
5.000000000000000e-01 0.000000000000000e+00 5.000000000000000e-01
1.000000000000000e+00 5.000000000000000e-01 5.000000000000000e-01
1.000000000000000e+00 0.000000000000000e+00 5.000000000000000e-01
7.500000000000000e-01 0.000000000000000e+00 2.500000000000000e-01
7.500000000000000e-01 0.000000000000000e+00 7.500000000000000e-01
1.000000000000000e+00 2.500000000000000e-01 7.500000000000000e-01
1.000000000000000e+00 2.500000000000000e-01 2.500000000000000e-01
7.500000000000000e-01 2.500000000000000e-01 5.000000000000000e-01
1.000000000000000e+00 0.000000000000000e+00 0.000000000000000e+00
1.000000000000000e+00 1.000000000000000e+00 0.000000000000000e+00
5.000000000000000e-01 5.000000000000000e-01 0.000000000000000e+00
1.000000000000000e+00 5.000000000000000e-01 5.000000000000000e-01
1.000000000000000e+00 5.000000000000000e-01 0.000000000000000e+00
7.500000000000000e-01 7.500000000000000e-01 0.000000000000000e+00
7.500000000000000e-01 2.500000000000000e-01 0.000000000000000e+00
1.000000000000000e+00 2.500000000000000e-01 2.500000000000000e-01
1.000000000000000e+00 7.500000000000000e-01 2.500000000000000e-01
7.500000000000000e-01 5.000000000000000e-01 2.500000000000000e-01
1.000000000000000e+00 1.000000000000000e+00 0.000000000000000e+00
1.000000000000000e+00 1.000000000000000e+00 1.000000000000000e+00
5.000000000000000e-01 1.000000000000000e+00 5.000000000000000e-01
1.000000000000000e+00 5.000000000000000e-01 5.000000000000000e-01
1.000000000000000e+00 1.000000000000000e+00 5.000000000000000e-01
7.500000000000000e-01 1.000000000000000e+00 7.500000000000000e-01
7.500000000000000e-01 1.000000000000000e+00 2.500000000000000e-01
1.000000000000000e+00 7.500000000000000e-01 2.500000000000000e-01
1.000000000000000e+00 7.500000000000000e-01 7.500000000000000e-01
7.500000000000000e-01 7.500000000000000e-01 5.000000000000000e-01
1.000000000000000e+00 1.000000000000000e+00 1.000000000000000e+00
1.000000000000000e+00 0.000000000000000e+00 1.000000000000000e+00
5.000000000000000e-01 5.000000000000000e-01 1.000000000000000e+00
1.000000000000000e+00 5.000000000000000e-01 5.000000000000000e-01
1.000000000000000e+00 5.000000000000000e-01 1.000000000000000e+00
7.500000000000000e-01 2.500000000000000e-01 1.000000000000000e+00
7.500000000000000e-01 7.500000000000000e-01 1.000000000000000e+00
1.000000000000000e+00 7.500000000000000e-01 7.500000000000000e-01
1.000000000000000e+00 2.500000000000000e-01 7.500000000000000e-01
7.500000000000000e-01 5.000000000000000e-01 7.500000000000000e-01
0.000000000000000e+00 5.000000000000000e-01 5.000000000000000e-01
5.000000000000000e-01 0.000000000000000e+00 5.000000000000000e-01
5.000000000000000e-01 5.000000000000000e-01 1.000000000000000e+00
0.000000000000000e+00 0.000000000000000e+00 1.000000000000000e+00
2.500000000000000e-01 2.500000000000000e-01 5.000000000000000e-01
5.000000000000000e-01 2.500000000000000e-01 7.500000000000000e-01
2.500000000000000e-01 5.000000000000000e-01 7.500000000000000e-01
0.000000000000000e+00 2.500000000000000e-01 7.500000000000000e-01
2.500000000000000e-01 0.000000000000000e+00 7.500000000000000e-01
2.500000000000000e-01 2.500000000000000e-01 1.000000000000000e+00
0.000000000000000e+00 5.000000000000000e-01 5.000000000000000e-01
5.000000000000000e-01 5.000000000000000e-01 0.000000000000000e+00
5.000000000000000e-01 0.000000000000000e+00 5.000000000000000e-01
0.000000000000000e+00 0.000000000000000e+00 0.000000000000000e+00
2.500000000000000e-01 5.000000000000000e-01 2.500000000000000e-01
5.000000000000000e-01 2.500000000000000e-01 2.500000000000000e-01
2.500000000000000e-01 2.500000000000000e-01 5.000000000000000e-01
0.000000000000000e+00 2.500000000000000e-01 2.500000000000000e-01
2.500000000000000e-01 2.500000000000000e-01 0.000000000000000e+00
2.500000000000000e-01 0.000000000000000e+00 2.500000000000000e-01
0.000000000000000e+00 5.000000000000000e-01 5.000000000000000e-01
5.000000000000000e-01 1.000000000000000e+00 5.000000000000000e-01
5.000000000000000e-01 5.000000000000000e-01 0.000000000000000e+00
0.000000000000000e+00 1.000000000000000e+00 0.000000000000000e+00
[...]
  <PointData>
        <DataArray type="Float64" Name="displacement" NumberOfComponents="3" format="ascii">
0.000000000000000e+00 0.000000000000000e+00 0.000000000000000e+00
0.000000000000000e+00 0.000000000000000e+00 0.000000000000000e+00
0.000000000000000e+00 0.000000000000000e+00 0.000000000000000e+00
5.444934509089666e-02 -4.411236439589097e-04 -8.476597794134826e-04
0.000000000000000e+00 0.000000000000000e+00 0.000000000000000e+00
0.000000000000000e+00 0.000000000000000e+00 0.000000000000000e+00
0.000000000000000e+00 0.000000000000000e+00 0.000000000000000e+00
2.775718299722207e-02 -1.098140750968604e-04 -2.020229659003791e-04
2.672537890671709e-02 -1.075613012414849e-04 -2.037171599628336e-04
2.746208463071379e-02 -1.055268038399810e-04 -1.963386649957042e-04
0.000000000000000e+00 0.000000000000000e+00 0.000000000000000e+00
0.000000000000000e+00 0.000000000000000e+00 0.000000000000000e+00
0.000000000000000e+00 0.000000000000000e+00 0.000000000000000e+00
5.346787914535447e-02 -4.220923324065351e-04 -8.780055420758937e-04
0.000000000000000e+00 0.000000000000000e+00 0.000000000000000e+00
0.000000000000000e+00 0.000000000000000e+00 0.000000000000000e+00
0.000000000000000e+00 0.000000000000000e+00 0.000000000000000e+00
2.650874342051475e-02 -1.057002666100187e-04 -2.146353081298650e-04
2.702400556166037e-02 -9.582519449701417e-05 -2.170501784699205e-04
2.720775369124067e-02 -9.757193635421689e-05 -2.100423495922216e-04
0.000000000000000e+00 0.000000000000000e+00 0.000000000000000e+00
0.000000000000000e+00 0.000000000000000e+00 0.000000000000000e+00
0.000000000000000e+00 0.000000000000000e+00 0.000000000000000e+00
5.641638293920472e-02 -4.442418966816619e-04 -8.546062153520796e-04
0.000000000000000e+00 0.000000000000000e+00 0.000000000000000e+00
0.000000000000000e+00 0.000000000000000e+00 0.000000000000000e+00
0.000000000000000e+00 0.000000000000000e+00 0.000000000000000e+00
2.767607340811280e-02 -1.084249008750427e-04 -2.009433826358759e-04
2.871040304752730e-02 -1.113877533819969e-04 -2.101519291777333e-04
2.797128032106623e-02 -1.063202419883737e-04 -1.987264559635039e-04
0.000000000000000e+00 0.000000000000000e+00 0.000000000000000e+00
0.000000000000000e+00 0.000000000000000e+00 0.000000000000000e+00
0.000000000000000e+00 0.000000000000000e+00 0.000000000000000e+00
5.740194554708792e-02 -4.290388193451346e-04 -8.927892578323902e-04
0.000000000000000e+00 0.000000000000000e+00 0.000000000000000e+00
0.000000000000000e+00 0.000000000000000e+00 0.000000000000000e+00
0.000000000000000e+00 0.000000000000000e+00 0.000000000000000e+00
2.892920491351992e-02 -1.093730450860815e-04 -2.227602922041381e-04
2.841141727446428e-02 -9.750787135492029e-05 -2.199596561509061e-04
2.822614952228805e-02 -9.995976007531287e-05 -2.136669546578663e-04
0.000000000000000e+00 0.000000000000000e+00 0.000000000000000e+00
1.131193480480289e-01 -1.879443722459286e-03 -3.773103469901641e-03
5.444934509089666e-02 -4.411236439589097e-04 -8.476597794134826e-04
5.740194554708792e-02 -4.290388193451346e-04 -8.927892578323902e-04
5.642788375843900e-02 -4.389252115988020e-04 -8.706903865048720e-04
8.323343570702939e-02 -1.003394100269263e-03 -2.018681685265467e-03
2.775718299722207e-02 -1.098140750968604e-04 -2.020229659003791e-04
2.841141727446428e-02 -9.750787135492029e-05 -2.199596561509061e-04
8.545669771662399e-02 -1.018668743684736e-03 -2.036712636669115e-03
5.595882393475376e-02 -4.337535078355034e-04 -8.677812934957426e-04
0.000000000000000e+00 0.000000000000000e+00 0.000000000000000e+00
1.040769842400960e-01 -1.875543187835763e-03 -3.729656424919913e-03
5.346787914535447e-02 -4.220923324065351e-04 -8.780055420758937e-04
5.444934509089666e-02 -4.411236439589097e-04 -8.476597794134826e-04
5.245312309528971e-02 -4.227353329323761e-04 -8.520390672440370e-04
7.918643888853703e-02 -9.926724943014819e-04 -2.021468656052827e-03
2.650874342051475e-02 -1.057002666100187e-04 -2.146353081298650e-04
2.672537890671709e-02 -1.075613012414849e-04 -2.037171599628336e-04
7.992482482900728e-02 -1.024142975916651e-03 -1.995717206888233e-03
5.385505682099320e-02 -4.309458410469181e-04 -8.600195983920869e-04
0.000000000000000e+00 0.000000000000000e+00 0.000000000000000e+00
1.086000748750427e-01 -1.860794612837231e-03 -3.746761867814251e-03
5.641638293920472e-02 -4.442418966816619e-04 -8.546062153520796e-04
5.346787914535447e-02 -4.220923324065351e-04 -8.780055420758937e-04
5.443829459810975e-02 -4.339450186288026e-04 -8.647761947059904e-04
8.305941892642692e-02 -9.991636161915550e-04 -2.017146282495133e-03
2.767607340811280e-02 -1.084249008750427e-04 -2.009433826358759e-04
2.702400556166037e-02 -9.582519449701417e-05 -2.170501784699205e-04
8.084016843146620e-02 -1.006100993921146e-03 -2.016822533033167e-03
5.490666116655530e-02 -4.298851759794649e-04 -8.644611528671180e-04
0.000000000000000e+00 0.000000000000000e+00 0.000000000000000e+00
1.176339439242685e-01 -1.917456988083260e-03 -3.816555797005106e-03
5.740194554708792e-02 -4.290388193451346e-04 -8.927892578323902e-04
5.641638293920472e-02 -4.442418966816619e-04 -8.546062153520796e-04
5.842171068280141e-02 -4.364918416709681e-04 -8.766890862579996e-04
8.711238720240010e-02 -1.013927056128669e-03 -2.064409085497394e-03
2.892920491351992e-02 -1.093730450860815e-04 -2.227602922041381e-04
2.871040304752730e-02 -1.113877533819969e-04 -2.101519291777333e-04
8.636999007529185e-02 -1.042964179062714e-03 -2.031073716942382e-03
5.701149688633867e-02 -4.393073324857856e-04 -8.755694186499837e-04
1.131193480480289e-01 -1.879443722459286e-03 -3.773103469901641e-03
1.040769842400960e-01 -1.875543187835763e-03 -3.729656424919913e-03
5.444934509089666e-02 -4.411236439589097e-04 -8.476597794134826e-04
1.108535911879648e-01 -1.841281000683541e-03 -3.682691674102117e-03
1.086456844196553e-01 -1.852786235829384e-03 -3.668356295585493e-03
7.992482482900728e-02 -1.024142975916651e-03 -1.995717206888233e-03
8.323343570702939e-02 -1.003394100269263e-03 -2.018681685265467e-03
1.120471959761810e-01 -1.862393280753481e-03 -3.724851594526598e-03
1.072775886401960e-01 -1.845691237237992e-03 -3.690024309300348e-03
8.231781561915331e-02 -1.003054051278392e-03 -1.987112363054029e-03
1.040769842400960e-01 -1.875543187835763e-03 -3.729656424919913e-03
1.086000748750427e-01 -1.860794612837231e-03 -3.746761867814251e-03
5.346787914535447e-02 -4.220923324065351e-04 -8.780055420758937e-04
1.108535911879648e-01 -1.841281000683541e-03 -3.682691674102117e-03
1.064392629397236e-01 -1.826609474879633e-03 -3.691585428879315e-03
8.084016843146620e-02 -1.006100993921146e-03 -2.016822533033167e-03
7.918643888853703e-02 -9.926724943014819e-04 -2.021468656052827e-03
1.072775886401960e-01 -1.845691237237992e-03 -3.690024309300348e-03
1.096649175100688e-01 -1.851214718527973e-03 -3.708882675484334e-03
8.149141572541842e-02 -9.905013638067802e-04 -2.001450489141316e-03
1.086000748750427e-01 -1.860794612837231e-03 -3.746761867814251e-03
1.176339439242685e-01 -1.917456988083260e-03 -3.816555797005106e-03
5.641638293920472e-02 -4.442418966816619e-04 -8.546062153520796e-04
1.108535911879648e-01 -1.841281000683541e-03 -3.682691674102117e-03
1.130644199759638e-01 -1.869506892883337e-03 -3.698800450393291e-03
8.636999007529185e-02 -1.042964179062714e-03 -2.031073716942382e-03
8.305941892642692e-02 -9.991636161915550e-04 -2.017146282495133e-03
1.096649175100688e-01 -1.851214718527973e-03 -3.708882675484334e-03
1.144244886975035e-01 -1.876390141361407e-03 -3.747871506158425e-03
8.397204889050369e-02 -1.008100198856953e-03 -1.999290604967757e-03
1.176339439242685e-01 -1.917456988083260e-03 -3.816555797005106e-03
1.131193480480289e-01 -1.879443722459286e-03 -3.773103469901641e-03
5.740194554708792e-02 -4.290388193451346e-04 -8.927892578323902e-04
1.108535911879648e-01 -1.841281000683541e-03 -3.682691674102117e-03
1.152766083861453e-01 -1.857051895138189e-03 -3.753243152034559e-03
8.545669771662399e-02 -1.018668743684736e-03 -2.036712636669115e-03
8.711238720240010e-02 -1.013927056128669e-03 -2.064409085497394e-03
1.144244886975035e-01 -1.876390141361407e-03 -3.747871506158425e-03
1.120471959761810e-01 -1.862393280753481e-03 -3.724851594526598e-03
8.479986396548629e-02 -1.002679318415573e-03 -2.020989060711281e-03
0.000000000000000e+00 0.000000000000000e+00 0.000000000000000e+00
5.444934509089666e-02 -4.411236439589097e-04 -8.476597794134826e-04
5.740194554708792e-02 -4.290388193451346e-04 -8.927892578323902e-04
0.000000000000000e+00 0.000000000000000e+00 0.000000000000000e+00
2.746208463071379e-02 -1.055268038399810e-04 -1.963386649957042e-04
5.595882393475376e-02 -4.337535078355034e-04 -8.677812934957426e-04
2.822614952228805e-02 -9.995976007531287e-05 -2.136669546578663e-04
0.000000000000000e+00 0.000000000000000e+00 0.000000000000000e+00
2.775718299722207e-02 -1.098140750968604e-04 -2.020229659003791e-04
2.841141727446428e-02 -9.750787135492029e-05 -2.199596561509061e-04
0.000000000000000e+00 0.000000000000000e+00 0.000000000000000e+00
5.346787914535447e-02 -4.220923324065351e-04 -8.780055420758937e-04
5.444934509089666e-02 -4.411236439589097e-04 -8.476597794134826e-04
0.000000000000000e+00 0.000000000000000e+00 0.000000000000000e+00
2.720775369124067e-02 -9.757193635421689e-05 -2.100423495922216e-04
5.385505682099320e-02 -4.309458410469181e-04 -8.600195983920869e-04
2.746208463071379e-02 -1.055268038399810e-04 -1.963386649957042e-04
0.000000000000000e+00 0.000000000000000e+00 0.000000000000000e+00
2.650874342051475e-02 -1.057002666100187e-04 -2.146353081298650e-04
2.672537890671709e-02 -1.075613012414849e-04 -2.037171599628336e-04
0.000000000000000e+00 0.000000000000000e+00 0.000000000000000e+00
5.641638293920472e-02 -4.442418966816619e-04 -8.546062153520796e-04
5.346787914535447e-02 -4.220923324065351e-04 -8.780055420758937e-04
0.000000000000000e+00 0.000000000000000e+00 0.000000000000000e+00
2.797128032106623e-02 -1.063202419883737e-04 -1.987264559635039e-04
5.490666116655530e-02 -4.298851759794649e-04 -8.644611528671180e-04
2.720775369124067e-02 -9.757193635421689e-05 -2.100423495922216e-04
0.000000000000000e+00 0.000000000000000e+00 0.000000000000000e+00
2.767607340811280e-02 -1.084249008750427e-04 -2.009433826358759e-04
2.702400556166037e-02 -9.582519449701417e-05 -2.170501784699205e-04
0.000000000000000e+00 0.000000000000000e+00 0.000000000000000e+00
5.740194554708792e-02 -4.290388193451346e-04 -8.927892578323902e-04
5.641638293920472e-02 -4.442418966816619e-04 -8.546062153520796e-04
0.000000000000000e+00 0.000000000000000e+00 0.000000000000000e+00
2.822614952228805e-02 -9.995976007531287e-05 -2.136669546578663e-04
5.701149688633867e-02 -4.393073324857856e-04 -8.755694186499837e-04
2.797128032106623e-02 -1.063202419883737e-04 -1.987264559635039e-04
0.000000000000000e+00 0.000000000000000e+00 0.000000000000000e+00
2.892920491351992e-02 -1.093730450860815e-04 -2.227602922041381e-04
2.871040304752730e-02 -1.113877533819969e-04 -2.101519291777333e-04
1.108535911879648e-01 -1.841281000683541e-03 -3.682691674102117e-03
5.740194554708792e-02 -4.290388193451346e-04 -8.927892578323902e-04
5.444934509089666e-02 -4.411236439589097e-04 -8.476597794134826e-04
1.131193480480289e-01 -1.879443722459286e-03 -3.773103469901641e-03
8.479986396548629e-02 -1.002679318415573e-03 -2.020989060711281e-03
5.595882393475376e-02 -4.337535078355034e-04 -8.677812934957426e-04
8.231781561915331e-02 -1.003054051278392e-03 -1.987112363054029e-03
1.120471959761810e-01 -1.862393280753481e-03 -3.724851594526598e-03
8.545669771662399e-02 -1.018668743684736e-03 -2.036712636669115e-03
8.323343570702939e-02 -1.003394100269263e-03 -2.018681685265467e-03
1.108535911879648e-01 -1.841281000683541e-03 -3.682691674102117e-03
5.444934509089666e-02 -4.411236439589097e-04 -8.476597794134826e-04
5.346787914535447e-02 -4.220923324065351e-04 -8.780055420758937e-04
1.040769842400960e-01 -1.875543187835763e-03 -3.729656424919913e-03
8.231781561915331e-02 -1.003054051278392e-03 -1.987112363054029e-03
5.385505682099320e-02 -4.309458410469181e-04 -8.600195983920869e-04
8.149141572541842e-02 -9.905013638067802e-04 -2.001450489141316e-03
1.072775886401960e-01 -1.845691237237992e-03 -3.690024309300348e-03
7.992482482900728e-02 -1.024142975916651e-03 -1.995717206888233e-03
7.918643888853703e-02 -9.926724943014819e-04 -2.021468656052827e-03
1.108535911879648e-01 -1.841281000683541e-03 -3.682691674102117e-03
5.346787914535447e-02 -4.220923324065351e-04 -8.780055420758937e-04
5.641638293920472e-02 -4.442418966816619e-04 -8.546062153520796e-04
1.086000748750427e-01 -1.860794612837231e-03 -3.746761867814251e-03
8.149141572541842e-02 -9.905013638067802e-04 -2.001450489141316e-03
5.490666116655530e-02 -4.298851759794649e-04 -8.644611528671180e-04
8.397204889050369e-02 -1.008100198856953e-03 -1.999290604967757e-03
1.096649175100688e-01 -1.851214718527973e-03 -3.708882675484334e-03
8.084016843146620e-02 -1.006100993921146e-03 -2.016822533033167e-03
8.305941892642692e-02 -9.991636161915550e-04 -2.017146282495133e-03
1.108535911879648e-01 -1.841281000683541e-03 -3.682691674102117e-03
5.641638293920472e-02 -4.442418966816619e-04 -8.546062153520796e-04
5.740194554708792e-02 -4.290388193451346e-04 -8.927892578323902e-04
1.176339439242685e-01 -1.917456988083260e-03 -3.816555797005106e-03
8.397204889050369e-02 -1.008100198856953e-03 -1.999290604967757e-03
5.701149688633867e-02 -4.393073324857856e-04 -8.755694186499837e-04
8.479986396548629e-02 -1.002679318415573e-03 -2.020989060711281e-03
1.144244886975035e-01 -1.876390141361407e-03 -3.747871506158425e-03
8.636999007529185e-02 -1.042964179062714e-03 -2.031073716942382e-03
8.711238720240010e-02 -1.013927056128669e-03 -2.064409085497394e-03
0.000000000000000e+00 0.000000000000000e+00 0.000000000000000e+00
5.740194554708792e-02 -4.290388193451346e-04 -8.927892578323902e-04
5.444934509089666e-02 -4.411236439589097e-04 -8.476597794134826e-04
5.543200821302239e-02 -4.284914567590996e-04 -8.569985199432548e-04
2.822614952228805e-02 -9.995976007531287e-05 -2.136669546578663e-04
5.595882393475376e-02 -4.337535078355034e-04 -8.677812934957426e-04
2.746208463071379e-02 -1.055268038399810e-04 -1.963386649957042e-04
2.771663954297495e-02 -1.010742195221683e-04 -2.021513877016973e-04
5.648410871497127e-02 -4.310066947322930e-04 -8.682565111072390e-04
5.490649035891131e-02 -4.306630773695197e-04 -8.530809914958519e-04
0.000000000000000e+00 0.000000000000000e+00 0.000000000000000e+00
5.444934509089666e-02 -4.411236439589097e-04 -8.476597794134826e-04
5.346787914535447e-02 -4.220923324065351e-04 -8.780055420758937e-04
5.543200821302239e-02 -4.284914567590996e-04 -8.569985199432548e-04
2.746208463071379e-02 -1.055268038399810e-04 -1.963386649957042e-04
5.385505682099320e-02 -4.309458410469181e-04 -8.600195983920869e-04
2.720775369124067e-02 -9.757193635421689e-05 -2.100423495922216e-04
2.771663954297495e-02 -1.010742195221683e-04 -2.021513877016973e-04
5.490649035891131e-02 -4.306630773695197e-04 -8.530809914958519e-04
5.438130193510034e-02 -4.250452430575395e-04 -8.588527720305623e-04
0.000000000000000e+00 0.000000000000000e+00 0.000000000000000e+00
5.346787914535447e-02 -4.220923324065351e-04 -8.780055420758937e-04
5.641638293920472e-02 -4.442418966816619e-04 -8.546062153520796e-04
5.543200821302239e-02 -4.284914567590996e-04 -8.569985199432548e-04
2.720775369124067e-02 -9.757193635421689e-05 -2.100423495922216e-04
5.490666116655530e-02 -4.298851759794649e-04 -8.644611528671180e-04
2.797128032106623e-02 -1.063202419883737e-04 -1.987264559635039e-04
2.771663954297495e-02 -1.010742195221683e-04 -2.021513877016973e-04
5.438130193510034e-02 -4.250452430575395e-04 -8.588527720305623e-04
5.595789247875724e-02 -4.328714022184536e-04 -8.590424431246503e-04
0.000000000000000e+00 0.000000000000000e+00 0.000000000000000e+00
5.641638293920472e-02 -4.442418966816619e-04 -8.546062153520796e-04
5.740194554708792e-02 -4.290388193451346e-04 -8.927892578323902e-04
5.543200821302239e-02 -4.284914567590996e-04 -8.569985199432548e-04
2.797128032106623e-02 -1.063202419883737e-04 -1.987264559635039e-04
5.701149688633867e-02 -4.393073324857856e-04 -8.755694186499837e-04
2.822614952228805e-02 -9.995976007531287e-05 -2.136669546578663e-04
2.771663954297495e-02 -1.010742195221683e-04 -2.021513877016973e-04
5.595789247875724e-02 -4.328714022184536e-04 -8.590424431246503e-04
5.648410871497127e-02 -4.310066947322930e-04 -8.682565111072390e-04
1.108535911879648e-01 -1.841281000683541e-03 -3.682691674102117e-03
5.444934509089666e-02 -4.411236439589097e-04 -8.476597794134826e-04
5.740194554708792e-02 -4.290388193451346e-04 -8.927892578323902e-04
5.543200821302239e-02 -4.284914567590996e-04 -8.569985199432548e-04
8.231781561915331e-02 -1.003054051278392e-03 -1.987112363054029e-03
5.595882393475376e-02 -4.337535078355034e-04 -8.677812934957426e-04
8.479986396548629e-02 -1.002679318415573e-03 -2.020989060711281e-03
8.314480873242261e-02 -1.002434959828190e-03 -2.004924671926639e-03
5.490649035891131e-02 -4.306630773695197e-04 -8.530809914958519e-04
5.648410871497127e-02 -4.310066947322930e-04 -8.682565111072390e-04
1.108535911879648e-01 -1.841281000683541e-03 -3.682691674102117e-03
5.346787914535447e-02 -4.220923324065351e-04 -8.780055420758937e-04
5.444934509089666e-02 -4.411236439589097e-04 -8.476597794134826e-04
5.543200821302239e-02 -4.284914567590996e-04 -8.569985199432548e-04
8.149141572541842e-02 -9.905013638067802e-04 -2.001450489141316e-03
5.385505682099320e-02 -4.309458410469181e-04 -8.600195983920869e-04
8.231781561915331e-02 -1.003054051278392e-03 -1.987112363054029e-03
8.314480873242261e-02 -1.002434959828190e-03 -2.004924671926639e-03
5.438130193510034e-02 -4.250452430575395e-04 -8.588527720305623e-04
5.490649035891131e-02 -4.306630773695197e-04 -8.530809914958519e-04
1.108535911879648e-01 -1.841281000683541e-03 -3.682691674102117e-03
5.641638293920472e-02 -4.442418966816619e-04 -8.546062153520796e-04
5.346787914535447e-02 -4.220923324065351e-04 -8.780055420758937e-04
5.543200821302239e-02 -4.284914567590996e-04 -8.569985199432548e-04
8.397204889050369e-02 -1.008100198856953e-03 -1.999290604967757e-03
5.490666116655530e-02 -4.298851759794649e-04 -8.644611528671180e-04
8.149141572541842e-02 -9.905013638067802e-04 -2.001450489141316e-03
8.314480873242261e-02 -1.002434959828190e-03 -2.004924671926639e-03
5.595789247875724e-02 -4.328714022184536e-04 -8.590424431246503e-04
5.438130193510034e-02 -4.250452430575395e-04 -8.588527720305623e-04
1.108535911879648e-01 -1.841281000683541e-03 -3.682691674102117e-03
5.740194554708792e-02 -4.290388193451346e-04 -8.927892578323902e-04
5.641638293920472e-02 -4.442418966816619e-04 -8.546062153520796e-04
5.543200821302239e-02 -4.284914567590996e-04 -8.569985199432548e-04
8.479986396548629e-02 -1.002679318415573e-03 -2.020989060711281e-03
5.701149688633867e-02 -4.393073324857856e-04 -8.755694186499837e-04
8.397204889050369e-02 -1.008100198856953e-03 -1.999290604967757e-03
8.314480873242261e-02 -1.002434959828190e-03 -2.004924671926639e-03
5.648410871497127e-02 -4.310066947322930e-04 -8.682565111072390e-04
5.595789247875724e-02 -4.328714022184536e-04 -8.590424431246503e-04
1.131193480480289e-01 -1.879443722459286e-03 -3.773103469901641e-03
1.040769842400960e-01 -1.875543187835763e-03 -3.729656424919913e-03
1.108535911879648e-01 -1.841281000683541e-03 -3.682691674102117e-03
1.622265872171011e-01 -4.616295686961628e-03 -9.173996446303507e-03
1.086456844196553e-01 -1.852786235829384e-03 -3.668356295585493e-03
1.072775886401960e-01 -1.845691237237992e-03 -3.690024309300348e-03
1.120471959761810e-01 -1.862393280753481e-03 -3.724851594526598e-03
1.387801959057518e-01 -3.047162304170934e-03 -6.063249777024313e-03
1.322420209714842e-01 -3.012788961611960e-03 -6.013665466455538e-03
1.369398437317084e-01 -3.022141726989122e-03 -6.012328368810177e-03
1.040769842400960e-01 -1.875543187835763e-03 -3.729656424919913e-03
1.086000748750427e-01 -1.860794612837231e-03 -3.746761867814251e-03
1.108535911879648e-01 -1.841281000683541e-03 -3.682691674102117e-03