<?xml version="1.0"?>
<VTKFile type="UnstructuredGrid" version="0.1" byte_order="LittleEndian" header_type="UInt32" compressor="vtkZLibDataCompressor">
  <UnstructuredGrid>
    <Piece NumberOfPoints="52" NumberOfCells="21">
      <PointData Scalars="point_set_1">
        <DataArray type="Int64" Name="point_set_1" format="ascii" RangeMin="0" RangeMax="1">
          1 0 0 0 0 0
          0 0 0 0 0 0
          0 0 0 0 0 0
          0 0 0 0 0 0
          0 0 0 0 0 0
          0 0 0 0 0 0
          0 0 0 0 0 0
          0 0 0 0 0 0
          0 0 0 0
        </DataArray>
        <DataArray type="Int64" Name="point_set_2" format="ascii" RangeMin="0" RangeMax="1">
          0 0 0 0 0 0
          0 1 0 0 0 0
          0 0 0 0 0 0
          0 0 0 0 0 0
          0 0 0 0 0 0
          0 0 0 0 0 0
          0 0 0 0 0 0
          0 0 0 0 0 0
          0 0 0 0
        </DataArray>
        <DataArray type="Int64" Name="point_set_3" format="ascii" RangeMin="0" RangeMax="1">
          0 0 0 0 0 0
          0 0 0 0 0 1
          0 0 0 0 0 0
          0 0 0 0 0 0
          0 0 0 0 0 0
          0 0 0 0 0 0
          0 0 0 0 0 0
          0 0 0 0 0 0
          0 0 0 0
        </DataArray>
        <DataArray type="Int64" Name="point_set_4" format="ascii" RangeMin="0" RangeMax="1">
          0 0 0 0 0 0
          0 0 0 0 0 0
          0 0 0 0 0 0
          1 0 0 0 0 0
          0 0 0 0 0 0
          0 0 0 0 0 0
          0 0 0 0 0 0
          0 0 0 0 0 0
          0 0 0 0
        </DataArray>
        <DataArray type="Int64" Name="point_set_5" format="ascii" RangeMin="0" RangeMax="1">
          0 0 0 0 0 0
          0 0 0 0 0 0
          0 0 0 0 0 0
          0 0 0 0 0 0
          0 0 0 0 1 0
          0 0 0 0 0 0
          0 0 0 0 0 0
          0 0 0 0 0 0
          0 0 0 0
        </DataArray>
        <DataArray type="Int64" Name="point_set_6" format="ascii" RangeMin="0" RangeMax="1">
          0 0 0 0 0 0
          0 0 0 0 0 0
          0 0 0 0 0 0
          0 0 0 0 0 0
          0 0 0 0 0 0
          0 0 0 0 0 0
          0 0 0 0 0 1
          0 0 0 0 0 0
          0 0 0 0
        </DataArray>
        <DataArray type="Int64" Name="point_set_7" format="ascii" RangeMin="0" RangeMax="1">
          0 0 0 0 0 0
          0 0 0 0 0 0
          0 0 0 0 0 0
          0 0 0 0 0 0
          0 0 0 0 0 0
          0 0 0 0 0 0
          0 0 0 0 0 0
          0 0 0 0 0 0
          1 0 0 0
        </DataArray>
        <DataArray type="Int64" Name="point_set_8" format="ascii" RangeMin="0" RangeMax="1">
          0 0 0 0 0 0
          1 0 0 0 0 0
          0 0 0 0 0 0
          0 0 0 0 0 0
          0 0 0 0 0 0
          0 0 0 0 0 0
          0 0 0 0 0 0
          0 0 0 0 0 0
          0 0 0 0
        </DataArray>
        <DataArray type="Int64" Name="point_set_9" format="ascii" RangeMin="0" RangeMax="1">
          0 0 0 0 0 0
          0 0 0 0 1 0
          0 0 0 0 0 0
          0 0 0 0 0 0
          0 0 0 0 0 0
          0 0 0 0 0 0
          0 0 0 0 0 0
          0 0 0 0 0 0
          0 0 0 0
        </DataArray>
        <DataArray type="Int64" Name="point_set_10" format="ascii" RangeMin="0" RangeMax="1">
          0 0 0 0 0 0
          0 0 0 0 0 0
          0 0 0 0 0 1
          0 0 0 0 0 0
          0 0 0 0 0 0
          0 0 0 0 0 0
          0 0 0 0 0 0
          0 0 0 0 0 0
          0 0 0 0
        </DataArray>
        <DataArray type="Int64" Name="point_set_11" format="ascii" RangeMin="0" RangeMax="1">
          0 0 0 0 0 0
          0 0 0 0 0 0
          0 0 0 0 0 0
          0 0 0 0 0 0
          0 0 0 1 0 0
          0 0 0 0 0 0
          0 0 0 0 0 0
          0 0 0 0 0 0
          0 0 0 0
        </DataArray>
        <DataArray type="Int64" Name="point_set_12" format="ascii" RangeMin="0" RangeMax="1">
          0 0 0 0 0 0
          0 0 0 0 0 0
          0 0 0 0 0 0
          0 0 0 0 0 0
          0 0 0 0 0 0
          0 0 0 0 0 0
          0 0 0 0 1 0
          0 0 0 0 0 0
          0 0 0 0
        </DataArray>
        <DataArray type="Int64" Name="point_set_13" format="ascii" RangeMin="0" RangeMax="1">
          0 0 0 0 0 0
          0 0 0 0 0 0
          0 0 0 0 0 0
          0 0 0 0 0 0
          0 0 0 0 0 0
          0 0 0 0 0 0
          0 0 0 0 0 0
          0 0 0 0 0 1
          0 0 0 0
        </DataArray>
        <DataArray type="Int64" Name="point_set_14" format="ascii" RangeMin="0" RangeMax="1">
          0 0 0 0 0 0
          0 0 0 0 0 0
          0 0 0 0 0 0
          0 0 0 0 0 0
          0 0 0 0 0 0
          0 0 0 0 0 0
          0 0 0 0 0 0
          0 0 0 0 0 0
          0 0 0 1
        </DataArray>
      </PointData>
      <CellData Scalars="element_rotation_vector_2">
        <DataArray type="Float64" Name="element_rotation_vector_2" NumberOfComponents="6" format="ascii" RangeMin="0" RangeMax="3.5413495196856584">
          0 0 0 0 0 0
          0 0 0 0 0 0
          0 0 0 0 0 0
          0.6139431255689367 -0.6139431255689369 1.4821898202742554 0.5240183911626962 -0.7483758208352144 1.8067390564124717
          0.5240183911626962 -0.7483758208352144 1.8067390564124717 0.41096181068245846 -0.8813104470736711 2.127671633986352
          0.41096181068245846 -0.8813104470736711 2.127671633986352 0.2711981408437142 -1.0121252405469616 2.443486482548606
          0 0 0 0 0 0
          0 0 0 0 0 0
          0 0 0 0 0 0
          0 0 0 0 0 0
          0 0 0 0 0 0
          0 0 0 0 0 0
          0 0 0 0 0 0
          0 0 0 0 0 0
          0 0 0 0 0 0
          0 0 0 0 0 0
          0 0 0 0 0 0
          0 0 0 0 0 0
          0 0 0 0 0 0
          0 0 0 0 0 0
          0 0 0 0 0 0
          <InformationKey name="L2_NORM_RANGE" location="vtkDataArray" length="2">
            <Value index="0">
              0
            </Value>
            <Value index="1">
              3.5413495197
            </Value>
          </InformationKey>
        </DataArray>
        <DataArray type="Float64" Name="element_rotation_vector_3" NumberOfComponents="9" format="ascii" RangeMin="0" RangeMax="4.334070909014718">
          0.6139431255689367 -0.6139431255689369 1.4821898202742554 0.5240183911626962 -0.7483758208352144 1.8067390564124717
          0.5716919750391082 -0.6813159651101366 1.6448422432302061 0.5240183911626962 -0.7483758208352144 1.8067390564124717
          0.41096181068245846 -0.8813104470736711 2.127671633986352 0.4705773785728893 -0.8150639285808179 1.9677383905809065
          0.41096181068245846 -0.8813104470736711 2.127671633986352 0.2711981408437142 -1.0121252405469616 2.443486482548606
          0.3446912727309013 -0.9470314885112264 2.2863362635581823 0 0 0
          0 0 0 0 0 0
          0 0 0 0 0 0
          0 0 0 0 0 0
          0 0 0 0 0 0
          0.6139431255689367 -0.6139431255689369 1.4821898202742554 0.5240183911626962 -0.7483758208352144 1.8067390564124717
          0.5716919750391082 -0.6813159651101366 1.6448422432302061 0.5240183911626962 -0.7483758208352144 1.8067390564124717
          0.41096181068245846 -0.8813104470736711 2.127671633986352 0.4705773785728893 -0.8150639285808179 1.9677383905809065
          0.41096181068245846 -0.8813104470736711 2.127671633986352 0.2711981408437142 -1.0121252405469616 2.443486482548606
          0.3446912727309013 -0.9470314885112264 2.2863362635581823 0 0 0
          0 0 0 0 0 0
          0 0 0 0 0 0
          0 0 0 0 0 0
          0 0 0 0 0 0
          0 0 0 0 0 0
          0 0 0 0 0 0
          0 0 0 0 0 0
          0 0 0 0 0 0
          0 0 0 0.6139431255689367 -0.6139431255689369 1.4821898202742554
          0.5240183911626962 -0.7483758208352144 1.8067390564124717 0.5716919750391082 -0.6813159651101366 1.6448422432302061
          0.5240183911626962 -0.7483758208352144 1.8067390564124717 0.41096181068245846 -0.8813104470736711 2.127671633986352
          0.4705773785728893 -0.8150639285808179 1.9677383905809065 0.41096181068245846 -0.8813104470736711 2.127671633986352
          0.2711981408437142 -1.0121252405469616 2.443486482548606 0.3446912727309013 -0.9470314885112264 2.2863362635581823
          0 0 0 0 0 0
          0 0 0 0 0 0
          0 0 0 0 0 0
          0 0 0 0 0 0
          0 0 0
          <InformationKey name="L2_NORM_RANGE" location="vtkDataArray" length="2">
            <Value index="0">
              0
            </Value>
            <Value index="1">
              4.334070909
            </Value>
          </InformationKey>
        </DataArray>
        <DataArray type="Float64" Name="element_rotation_vector_4" NumberOfComponents="12" format="ascii" RangeMin="0" RangeMax="5.003329988710315">
          0 0 0 0 0 0
          0 0 0 0 0 0
          0 0 0 0 0 0
          0 0 0 0 0 0
          0 0 0 0 0 0
          0 0 0 0 0 0
          0 0 0 0 0 0
          0 0 0 0 0 0
          0 0 0 0 0 0
          0 0 0 0 0 0
          0 0 0 0 0 0
          0 0 0 0 0 0
          0 0 0 0 0 0
          0 0 0 0 0 0
          0 0 0 0 0 0
          0 0 0 0 0 0
          0 0 0 0 0 0
          0 0 0 0 0 0
          0.6139431255689367 -0.6139431255689369 1.4821898202742554 0.5240183911626962 -0.7483758208352144 1.8067390564124717
          0.5863627551460838 -0.6588904979599298 1.5907023762936245 0.556419138053255 -0.7037067280002604 1.6988983266714228
          0.5240183911626962 -0.7483758208352144 1.8067390564124717 0.41096181068245846 -0.8813104470736711 2.127671633986352
          0.4890556157508681 -0.7928799186608302 1.9141814529642525 0.45141367996991316 -0.8371989876841567 2.0211771504721168
          0.41096181068245846 -0.8813104470736711 2.127671633986352 0.2711981408437142 -1.0121252405469616 2.443486482548606
          0.3675539628675647 -0.9251887269402276 2.2336031723337957 0.32102692867357263 -0.9688047391429087 2.3389015405301383
          0 0 0 0 0 0
          0 0 0 0 0 0
          0 0 0 0 0 0
          0 0 0 0 0 0
          0 0 0 0 0 0
          0 0 0 0 0 0
          0 0 0 0 0 0
          0 0 0 0 0 0
          0 0 0 0 0 0
          0 0 0 0 0 0
          0 0 0 0 0 0
          0 0 0 0 0 0
          0 0 0 0 0 0
          0 0 0 0 0 0
          0 0 0 0 0 0
          0 0 0 0 0 0
          0 0 0 0 0 0
          0 0 0 0 0 0
          <InformationKey name="L2_NORM_RANGE" location="vtkDataArray" length="2">
            <Value index="0">
              0
            </Value>
            <Value index="1">
              5.0033299887
            </Value>
          </InformationKey>
        </DataArray>
        <DataArray type="Float64" Name="element_rotation_vector_5" NumberOfComponents="15" format="ascii" RangeMin="0" RangeMax="5.593208610580088">
          0 0 0 0 0 0
          0 0 0 0 0 0
          0 0 0 0 0 0
          0 0 0 0 0 0
          0 0 0 0 0 0
          0 0 0 0 0 0
          0 0 0 0 0 0
          0 0 0 0 0 0
          0 0 0 0 0 0
          0 0 0 0 0 0
          0 0 0 0 0 0
          0 0 0 0 0 0
          0 0 0 0 0 0
          0 0 0 0 0 0
          0 0 0 0 0 0
          0 0 0 0 0 0
          0 0 0 0 0 0
          0 0 0 0 0 0
          0 0 0 0 0 0
          0 0 0 0 0 0
          0 0 0 0 0 0
          0 0 0 0 0 0
          0 0 0 0 0 0
          0 0 0 0 0 0
          0 0 0 0 0 0
          0 0 0 0 0 0
          0 0 0 0 0 0
          0 0 0 0 0 0
          0 0 0 0 0 0
          0 0 0 0 0 0
          0.6139431255689367 -0.6139431255689369 1.4821898202742554 0.5240183911626962 -0.7483758208352144 1.8067390564124717
          0.5934759611890276 -0.647665361625843 1.5636024999163851 0.5716919750391082 -0.6813159651101366 1.6448422432302061
          0.548553207855437 -0.7148884588306414 1.7258934128929344 0.5240183911626962 -0.7483758208352144 1.8067390564124717
          0.41096181068245846 -0.8813104470736711 2.127671633986352 0.49804268385519385 -0.7817704176363839 1.8873607449198366
          0.4705773785728893 -0.8150639285808179 1.9677383905809065 0.44156957424727206 -0.8482472599432769 2.047850039200875
          0.41096181068245846 -0.8813104470736711 2.127671633986352 0.2711981408437142 -1.0121252405469616 2.443486482548606
          0.3786916604529951 -0.9142425426232081 2.2071767456994116 0.3446912727309013 -0.9470314885112264 2.2863362635581823
          0.3088868628881597 -0.9796639688543651 2.3651180401764615 0 0 0
          0 0 0 0 0 0
          0 0 0 0 0 0
          0 0 0 0 0 0
          0 0 0 0 0 0
          0 0 0 0 0 0
          0 0 0 0 0 0
          0 0 0 0 0 0
          0 0 0 0 0 0
          0 0 0 0 0 0
          0 0 0 0 0 0
          0 0 0 0 0 0
          0 0 0 0 0 0
          0 0 0 0 0 0
          0 0 0 0 0 0
          0 0 0
          <InformationKey name="L2_NORM_RANGE" location="vtkDataArray" length="2">
            <Value index="0">
              0
            </Value>
            <Value index="1">
              5.5932086106
            </Value>
          </InformationKey>
        </DataArray>
        <DataArray type="Int64" Name="block_id" format="ascii" RangeMin="0" RangeMax="6">
          0 0 0 1 1 1
          2 2 2 3 3 3
          4 4 4 5 5 5
          6 6 6
        </DataArray>
      </CellData>
      <Points>
        <DataArray type="Float64" Name="Points" NumberOfComponents="3" format="ascii" RangeMin="1.9999999999999998" RangeMax="8.246211251235321">
          2 0 0 1.9696155060244163 0.2455756079379456 0.24557560793794564
          1.8793852415718166 0.4836895252959504 0.48368952529595044 1.7320508075688776 0.7071067811865474 0.7071067811865475
          1.5320888862379562 0.9090389553440872 0.9090389553440873 1.2855752193730787 1.0833504408394035 1.0833504408394037
          1.0000000000000004 1.224744871391589 1.2247448713915892 3 0 0
          2.879385241571817 0.4836895252959504 0.48368952529595044 2.5320888862379562 0.9090389553440872 0.9090389553440873
          2.0000000000000004 1.224744871391589 1.2247448713915892 4 0 0
          3.9696155060244163 0.2455756079379456 0.24557560793794564 3.879385241571817 0.4836895252959504 0.48368952529595044
          3.7320508075688776 0.7071067811865474 0.7071067811865475 3.5320888862379562 0.9090389553440872 0.9090389553440873
          3.2855752193730785 1.0833504408394035 1.0833504408394037 3.0000000000000004 1.224744871391589 1.2247448713915892
          5 0 0 4.986476715483886 0.16418017365131557 0.1641801736513156
          4.946089741159648 0.32614009210243944 0.3261400921024395 4.879385241571817 0.4836895252959504 0.48368952529595044
          4.7872652806468246 0.63469788742142 0.6346978874214201 4.670975622825873 0.7771230494335133 0.7771230494335134
          4.532088886237956 0.9090389553440872 0.9090389553440873 4.372483275737467 1.0286616688253116 1.0286616688253118
          4.194317183405572 1.134373497888191 1.1343734978881912 4 1.224744871391589 1.2247448713915892
          6 0 0 5.9923893961834915 0.12325683343243869 0.1232568334324387
          5.969615506024416 0.2455756079379456 0.24557560793794564 5.931851652578136 0.3660254037844385 0.36602540378443854
          5.879385241571817 0.4836895252959504 0.48368952529595044 5.8126155740733 0.5976724774602395 0.5976724774602397
          5.732050807568878 0.7071067811865474 0.7071067811865475 5.638304088577984 0.8111595753452774 0.8111595753452775
          5.532088886237956 0.9090389553440872 0.9090389553440873 5.414213562373095 0.9999999999999998 1
          5.2855752193730785 1.0833504408394035 1.0833504408394037 5.147152872702092 1.1584559306791382 1.1584559306791384
          5 1.224744871391589 1.2247448713915892 7 0 0
          6.969615506024416 0.2455756079379456 0.24557560793794564 6.879385241571817 0.4836895252959504 0.48368952529595044
          6.732050807568878 0.7071067811865474 0.7071067811865475 6.532088886237956 0.9090389553440872 0.9090389553440873
          6.2855752193730785 1.0833504408394035 1.0833504408394037 6 1.224744871391589 1.2247448713915892
          8 0 0 8 0.6666666666666666 0
          8 1.3333333333333333 0 8 2 0
          <InformationKey name="L2_NORM_RANGE" location="vtkDataArray" length="2">
            <Value index="0">
              2
            </Value>
            <Value index="1">
              8.2462112512
            </Value>
          </InformationKey>
        </DataArray>
      </Points>
      <Cells>
        <DataArray type="Int64" Name="connectivity" format="ascii" RangeMin="0" RangeMax="51">
          0 1 2 2 3 4
          4 5 6 7 8 8
          9 9 10 11 12 13
          13 14 15 15 16 17
          18 19 20 21 21 22
          23 24 24 25 26 27
          28 29 30 31 32 32
          33 34 35 36 36 37
          38 39 40 41 42 43
          43 44 45 45 46 47
          48 49 49 50 50 51
        </DataArray>
        <DataArray type="Int64" Name="offsets" format="ascii" RangeMin="3" RangeMax="66">
          3 6 9 11 13 15
          18 21 24 28 32 36
          41 46 51 54 57 60
          62 64 66
        </DataArray>
        <DataArray type="UInt8" Name="types" format="ascii" RangeMin="4" RangeMax="4">
          4 4 4 4 4 4
          4 4 4 4 4 4
          4 4 4 4 4 4
          4 4 4
        </DataArray>
      </Cells>
    </Piece>
  </UnstructuredGrid>
</VTKFile>
