<?xml version="1.0" ?> 
<!-- 
# vtk DataFile Version 3.0
-->
<VTKFile type="UnstructuredGrid" version="0.1" compressor="vtkZLibDataCompressor" byte_order="LittleEndian">
  <UnstructuredGrid>
    <FieldData>
      <DataArray type="Float64" Name="TIME" NumberOfTuples="1" format="ascii">
5.000000100000001e-01 
      </DataArray>
    </FieldData>

    <Piece NumberOfPoints="720" NumberOfCells="80" >
      <Points>
        <DataArray type="Float64" NumberOfComponents="3" format="ascii">
-2.500000000000000e+00 1.250000000000000e-01 0.000000000000000e+00
-2.300000000000000e+00 1.250000000000000e-01 0.000000000000000e+00
-2.300000000000000e+00 7.654042494670958e-18 1.250000000000000e-01
-2.500000000000000e+00 7.654042494670958e-18 1.250000000000000e-01
-2.400000000000000e+00 1.250000000000000e-01 0.000000000000000e+00
-2.300000000000000e+00 8.838834764831845e-02 8.838834764831843e-02
-2.400000000000000e+00 7.654042494670958e-18 1.250000000000000e-01
-2.500000000000000e+00 8.838834764831845e-02 8.838834764831843e-02
-2.400000000000000e+00 8.838834764831845e-02 8.838834764831843e-02
-2.500000000000000e+00 7.654042494670958e-18 1.250000000000000e-01
-2.300000000000000e+00 7.654042494670958e-18 1.250000000000000e-01
-2.300000000000000e+00 -1.250000000000000e-01 1.530808498934192e-17
-2.500000000000000e+00 -1.250000000000000e-01 1.530808498934192e-17
-2.400000000000000e+00 7.654042494670958e-18 1.250000000000000e-01
-2.300000000000000e+00 -8.838834764831843e-02 8.838834764831845e-02
-2.400000000000000e+00 -1.250000000000000e-01 1.530808498934192e-17
-2.500000000000000e+00 -8.838834764831843e-02 8.838834764831845e-02
-2.400000000000000e+00 -8.838834764831843e-02 8.838834764831845e-02
-2.500000000000000e+00 -1.250000000000000e-01 1.530808498934192e-17
-2.300000000000000e+00 -1.250000000000000e-01 1.530808498934192e-17
-2.300000000000000e+00 -2.296212748401287e-17 -1.250000000000000e-01
-2.500000000000000e+00 -2.296212748401287e-17 -1.250000000000000e-01
-2.400000000000000e+00 -1.250000000000000e-01 1.530808498934192e-17
-2.300000000000000e+00 -8.838834764831846e-02 -8.838834764831843e-02
-2.400000000000000e+00 -2.296212748401287e-17 -1.250000000000000e-01
-2.500000000000000e+00 -8.838834764831846e-02 -8.838834764831843e-02
-2.400000000000000e+00 -8.838834764831846e-02 -8.838834764831843e-02
-2.500000000000000e+00 -2.296212748401287e-17 -1.250000000000000e-01
-2.300000000000000e+00 -2.296212748401287e-17 -1.250000000000000e-01
-2.300000000000000e+00 1.250000000000000e-01 -3.061616997868383e-17
-2.500000000000000e+00 1.250000000000000e-01 -3.061616997868383e-17
-2.400000000000000e+00 -2.296212748401287e-17 -1.250000000000000e-01
-2.300000000000000e+00 8.838834764831842e-02 -8.838834764831846e-02
-2.400000000000000e+00 1.250000000000000e-01 -3.061616997868383e-17
-2.500000000000000e+00 8.838834764831842e-02 -8.838834764831846e-02
-2.400000000000000e+00 8.838834764831842e-02 -8.838834764831846e-02
-2.300000000000000e+00 1.250000000000000e-01 0.000000000000000e+00
-2.100000000000000e+00 1.250000000000000e-01 0.000000000000000e+00
-2.100000000000000e+00 7.654042494670958e-18 1.250000000000000e-01
-2.300000000000000e+00 7.654042494670958e-18 1.250000000000000e-01
-2.200000000000000e+00 1.250000000000000e-01 0.000000000000000e+00
-2.100000000000000e+00 8.838834764831845e-02 8.838834764831843e-02
-2.200000000000000e+00 7.654042494670958e-18 1.250000000000000e-01
-2.300000000000000e+00 8.838834764831845e-02 8.838834764831843e-02
-2.200000000000000e+00 8.838834764831845e-02 8.838834764831843e-02
-2.300000000000000e+00 7.654042494670958e-18 1.250000000000000e-01
-2.100000000000000e+00 7.654042494670958e-18 1.250000000000000e-01
-2.100000000000000e+00 -1.250000000000000e-01 1.530808498934192e-17
-2.300000000000000e+00 -1.250000000000000e-01 1.530808498934192e-17
-2.200000000000000e+00 7.654042494670958e-18 1.250000000000000e-01
-2.100000000000000e+00 -8.838834764831843e-02 8.838834764831845e-02
-2.200000000000000e+00 -1.250000000000000e-01 1.530808498934192e-17
-2.300000000000000e+00 -8.838834764831843e-02 8.838834764831845e-02
-2.200000000000000e+00 -8.838834764831843e-02 8.838834764831845e-02
-2.300000000000000e+00 -1.250000000000000e-01 1.530808498934192e-17
-2.100000000000000e+00 -1.250000000000000e-01 1.530808498934192e-17
-2.100000000000000e+00 -2.296212748401287e-17 -1.250000000000000e-01
-2.300000000000000e+00 -2.296212748401287e-17 -1.250000000000000e-01
-2.200000000000000e+00 -1.250000000000000e-01 1.530808498934192e-17
-2.100000000000000e+00 -8.838834764831846e-02 -8.838834764831843e-02
-2.200000000000000e+00 -2.296212748401287e-17 -1.250000000000000e-01
-2.300000000000000e+00 -8.838834764831846e-02 -8.838834764831843e-02
-2.200000000000000e+00 -8.838834764831846e-02 -8.838834764831843e-02
-2.300000000000000e+00 -2.296212748401287e-17 -1.250000000000000e-01
-2.100000000000000e+00 -2.296212748401287e-17 -1.250000000000000e-01
-2.100000000000000e+00 1.250000000000000e-01 -3.061616997868383e-17
-2.300000000000000e+00 1.250000000000000e-01 -3.061616997868383e-17
-2.200000000000000e+00 -2.296212748401287e-17 -1.250000000000000e-01
-2.100000000000000e+00 8.838834764831842e-02 -8.838834764831846e-02
-2.200000000000000e+00 1.250000000000000e-01 -3.061616997868383e-17
-2.300000000000000e+00 8.838834764831842e-02 -8.838834764831846e-02
-2.200000000000000e+00 8.838834764831842e-02 -8.838834764831846e-02
-2.100000000000000e+00 1.250000000000000e-01 0.000000000000000e+00
-1.900000000000000e+00 1.250000000000000e-01 0.000000000000000e+00
-1.900000000000000e+00 7.654042494670958e-18 1.250000000000000e-01
-2.100000000000000e+00 7.654042494670958e-18 1.250000000000000e-01
-2.000000000000000e+00 1.250000000000000e-01 0.000000000000000e+00
-1.900000000000000e+00 8.838834764831845e-02 8.838834764831843e-02
-2.000000000000000e+00 7.654042494670958e-18 1.250000000000000e-01
-2.100000000000000e+00 8.838834764831845e-02 8.838834764831843e-02
-2.000000000000000e+00 8.838834764831845e-02 8.838834764831843e-02
-2.100000000000000e+00 7.654042494670958e-18 1.250000000000000e-01
-1.900000000000000e+00 7.654042494670958e-18 1.250000000000000e-01
-1.900000000000000e+00 -1.250000000000000e-01 1.530808498934192e-17
-2.100000000000000e+00 -1.250000000000000e-01 1.530808498934192e-17
-2.000000000000000e+00 7.654042494670958e-18 1.250000000000000e-01
-1.900000000000000e+00 -8.838834764831843e-02 8.838834764831845e-02
-2.000000000000000e+00 -1.250000000000000e-01 1.530808498934192e-17
-2.100000000000000e+00 -8.838834764831843e-02 8.838834764831845e-02
-2.000000000000000e+00 -8.838834764831843e-02 8.838834764831845e-02
-2.100000000000000e+00 -1.250000000000000e-01 1.530808498934192e-17
-1.900000000000000e+00 -1.250000000000000e-01 1.530808498934192e-17
-1.900000000000000e+00 -2.296212748401287e-17 -1.250000000000000e-01
-2.100000000000000e+00 -2.296212748401287e-17 -1.250000000000000e-01
-2.000000000000000e+00 -1.250000000000000e-01 1.530808498934192e-17
-1.900000000000000e+00 -8.838834764831846e-02 -8.838834764831843e-02
-2.000000000000000e+00 -2.296212748401287e-17 -1.250000000000000e-01
-2.100000000000000e+00 -8.838834764831846e-02 -8.838834764831843e-02
-2.000000000000000e+00 -8.838834764831846e-02 -8.838834764831843e-02
-2.100000000000000e+00 -2.296212748401287e-17 -1.250000000000000e-01
-1.900000000000000e+00 -2.296212748401287e-17 -1.250000000000000e-01
-1.900000000000000e+00 1.250000000000000e-01 -3.061616997868383e-17
-2.100000000000000e+00 1.250000000000000e-01 -3.061616997868383e-17
-2.000000000000000e+00 -2.296212748401287e-17 -1.250000000000000e-01
-1.900000000000000e+00 8.838834764831842e-02 -8.838834764831846e-02
-2.000000000000000e+00 1.250000000000000e-01 -3.061616997868383e-17
-2.100000000000000e+00 8.838834764831842e-02 -8.838834764831846e-02
-2.000000000000000e+00 8.838834764831842e-02 -8.838834764831846e-02
-1.900000000000000e+00 1.250000000000000e-01 0.000000000000000e+00
-1.700000000000000e+00 1.250000000000000e-01 0.000000000000000e+00
-1.700000000000000e+00 7.654042494670958e-18 1.250000000000000e-01
-1.900000000000000e+00 7.654042494670958e-18 1.250000000000000e-01
-1.800000000000000e+00 1.250000000000000e-01 0.000000000000000e+00
-1.700000000000000e+00 8.838834764831845e-02 8.838834764831843e-02
-1.800000000000000e+00 7.654042494670958e-18 1.250000000000000e-01
-1.900000000000000e+00 8.838834764831845e-02 8.838834764831843e-02
-1.800000000000000e+00 8.838834764831845e-02 8.838834764831843e-02
-1.900000000000000e+00 7.654042494670958e-18 1.250000000000000e-01
-1.700000000000000e+00 7.654042494670958e-18 1.250000000000000e-01
-1.700000000000000e+00 -1.250000000000000e-01 1.530808498934192e-17
-1.900000000000000e+00 -1.250000000000000e-01 1.530808498934192e-17
-1.800000000000000e+00 7.654042494670958e-18 1.250000000000000e-01
-1.700000000000000e+00 -8.838834764831843e-02 8.838834764831845e-02
-1.800000000000000e+00 -1.250000000000000e-01 1.530808498934192e-17
-1.900000000000000e+00 -8.838834764831843e-02 8.838834764831845e-02
-1.800000000000000e+00 -8.838834764831843e-02 8.838834764831845e-02
-1.900000000000000e+00 -1.250000000000000e-01 1.530808498934192e-17
-1.700000000000000e+00 -1.250000000000000e-01 1.530808498934192e-17
-1.700000000000000e+00 -2.296212748401287e-17 -1.250000000000000e-01
-1.900000000000000e+00 -2.296212748401287e-17 -1.250000000000000e-01
-1.800000000000000e+00 -1.250000000000000e-01 1.530808498934192e-17
-1.700000000000000e+00 -8.838834764831846e-02 -8.838834764831843e-02
-1.800000000000000e+00 -2.296212748401287e-17 -1.250000000000000e-01
-1.900000000000000e+00 -8.838834764831846e-02 -8.838834764831843e-02
-1.800000000000000e+00 -8.838834764831846e-02 -8.838834764831843e-02
-1.900000000000000e+00 -2.296212748401287e-17 -1.250000000000000e-01
-1.700000000000000e+00 -2.296212748401287e-17 -1.250000000000000e-01
-1.700000000000000e+00 1.250000000000000e-01 -3.061616997868383e-17
-1.900000000000000e+00 1.250000000000000e-01 -3.061616997868383e-17
-1.800000000000000e+00 -2.296212748401287e-17 -1.250000000000000e-01
[...]
  <PointData>
        <DataArray type="Float64" Name="displacement" NumberOfComponents="3" format="ascii">
-2.632264483017011e-02 -4.086504958629333e-02 -7.228384035775394e-04
-3.373238532428235e-02 2.826965359235989e-03 3.040730316854756e-02
-1.703827211120501e-02 -1.641506519405652e-02 6.231621692859846e-03
-9.736431270595869e-03 -5.990211471945123e-02 -2.458816884074849e-02
-2.992394606662963e-02 -1.899717381587669e-02 1.480296949826895e-02
-3.462662730418664e-02 -1.311116563747933e-02 2.196039464436746e-02
-1.335948512541618e-02 -3.811826867102284e-02 -9.178573517470090e-03
-2.724040606497402e-02 -5.662665863053459e-02 -9.054254478230106e-03
-3.083960682462328e-02 -3.482092186101879e-02 6.430891686287216e-03
-9.736431270595869e-03 -5.990211471945123e-02 -2.458816884074849e-02
-1.703827211120501e-02 -1.641506519405652e-02 6.231621692859846e-03
2.758266465145542e-02 1.408666769888550e-02 -1.134835416695643e-02
3.473757369351205e-02 -2.975787491284165e-02 -4.197653789028317e-02
-1.335948512541618e-02 -3.811826867102284e-02 -9.178573517470090e-03
8.729660322449373e-03 -5.149353758971131e-03 -7.565313810469224e-03
3.105186237322233e-02 -7.876860921425449e-03 -2.665117231484268e-02
1.593568851385418e-02 -4.877270009911344e-02 -3.822502513431163e-02
1.227680081152815e-02 -2.695767320443611e-02 -2.288161309803283e-02
3.473757369351205e-02 -2.975787491284165e-02 -4.197653789028317e-02
2.758266465145542e-02 1.408666769888550e-02 -1.134835416695643e-02
1.088855143837808e-02 3.332869825217803e-02 1.282732730873129e-02
1.815136013393781e-02 -1.072080977968373e-02 -1.811120745311223e-02
3.105186237322233e-02 -7.876860921425449e-03 -2.665117231484268e-02
2.847690663135971e-02 3.002479869560082e-02 -2.901445642776321e-03
1.448740143200888e-02 1.124423393372070e-02 -2.669629299103637e-03
3.565533492831596e-02 -1.399626586860039e-02 -3.364512181563062e-02
3.196752313121598e-02 7.946887123716662e-03 -1.827909450286094e-02
1.815136013393781e-02 -1.072080977968373e-02 -1.811120745311223e-02
1.088855143837808e-02 3.332869825217803e-02 1.282732730873129e-02
-3.373238532428235e-02 2.826965359235989e-03 3.040730316854756e-02
-2.632264483017011e-02 -4.086504958629333e-02 -7.228384035775400e-04
1.448740143200888e-02 1.124423393372070e-02 -2.669629299103637e-03
-1.487938099527630e-02 2.206298681709262e-02 2.662426281206036e-02
-2.992394606662963e-02 -1.899717381587669e-02 1.480296949826895e-02
-7.520759650512243e-03 -2.185022440002153e-02 -4.474351159549084e-03
-1.114888450493545e-02 8.363846713398126e-05 1.103341028145910e-02
-3.373238532428235e-02 2.826965359235989e-03 3.040730316854756e-02
-4.220923140490962e-02 4.691985247337033e-02 6.224249337913867e-02
-2.479852070340671e-02 2.732999340554033e-02 3.744548638640183e-02
-1.703827211120501e-02 -1.641506519405652e-02 6.231621692859846e-03
-3.780764975479878e-02 2.475160449825792e-02 4.618806216368127e-02
-4.300031722418662e-02 3.059732796667944e-02 5.354266555314768e-02
-2.083180110324756e-02 5.352699099233137e-03 2.174042007796947e-02
-3.462662730418664e-02 -1.311116563747933e-02 2.196039464436746e-02
-3.866064848723827e-02 8.647081487150057e-03 3.763197827007844e-02
-1.703827211120501e-02 -1.641506519405652e-02 6.231621692859846e-03
-2.479852070340671e-02 2.732999340554033e-02 3.744548638640183e-02
2.105435343051409e-02 5.884801003144827e-02 1.958670045391262e-02
2.758266465145542e-02 1.408666769888550e-02 -1.134835416695643e-02
-2.083180110324756e-02 5.352699099233137e-03 2.174042007796947e-02
1.733792615111973e-03 3.903180906305792e-02 2.338046511883118e-02
2.427016516120384e-02 3.627911432764724e-02 4.031018540076694e-03
8.729660322449373e-03 -5.149353758971131e-03 -7.565313810469224e-03
5.234995401111053e-03 1.679826185770583e-02 7.822446849050535e-03
2.758266465145542e-02 1.408666769888550e-02 -1.134835416695643e-02
2.105435343051409e-02 5.884801003144827e-02 1.958670045391262e-02
3.643642729011187e-03 7.843786909927827e-02 4.438370744664946e-02
1.088855143837808e-02 3.332869825217803e-02 1.282732730873129e-02
2.427016516120384e-02 3.627911432764724e-02 4.031018540076694e-03
2.184543924979110e-02 7.517053453813914e-02 2.828652827990361e-02
7.294316509652621e-03 5.567801972667204e-02 2.847866062578849e-02
2.847690663135971e-02 3.002479869560082e-02 -2.901445642776321e-03
2.512316389364333e-02 5.238363733875512e-02 1.258710243367953e-02
1.088855143837808e-02 3.332869825217803e-02 1.282732730873129e-02
3.643642729011187e-03 7.843786909927827e-02 4.438370744664946e-02
-4.220923140490962e-02 4.691985247337033e-02 6.224249337913866e-02
-3.373238532428235e-02 2.826965359235989e-03 3.040730316854756e-02
7.294316509652621e-03 5.567801972667204e-02 2.847866062578849e-02
-2.288867058950750e-02 6.673605344176066e-02 5.844872871422011e-02
-3.780764975479878e-02 2.475160449825792e-02 4.618806216368126e-02
-1.487938099527630e-02 2.206298681709262e-02 2.662426281206036e-02
-1.877247999470599e-02 4.423245696819934e-02 4.239663385470743e-02
-4.220923140490962e-02 4.691985247337033e-02 6.224249337913867e-02
-5.222819187270300e-02 9.255401983962519e-02 9.555805022082339e-02
-3.348248479254545e-02 7.249196015269749e-02 6.983341123981524e-02
-2.479852070340671e-02 2.732999340554033e-02 3.744548638640183e-02
-4.699640466402943e-02 6.947369777612467e-02 7.866718372323211e-02
-5.282838177520777e-02 7.564312984697542e-02 8.646592140417803e-02
-2.899631309788075e-02 4.966156549148775e-02 5.344415023748872e-02
-4.300031722418662e-02 3.059732796667944e-02 5.354266555314768e-02
-4.770372594212180e-02 5.288213345147307e-02 6.978877582977133e-02
-2.479852070340671e-02 2.732999340554033e-02 3.744548638640183e-02
-3.348248479254545e-02 7.249196015269749e-02 6.983341123981524e-02
1.467162868189753e-02 1.057108635114871e-01 5.162932032469064e-02
2.105435343051409e-02 5.884801003144827e-02 1.958670045391262e-02
-2.899631309788075e-02 4.966156549148775e-02 5.344415023748872e-02
-5.523065000886618e-03 8.494642322636030e-02 5.540361860571034e-02
1.787500133012454e-02 8.194200625750642e-02 3.541910620936310e-02
1.733792615111973e-03 3.903180906305792e-02 2.338046511883118e-02
-1.832714858549966e-03 6.169855892858385e-02 3.920776694643309e-02
2.105435343051409e-02 5.884801003144827e-02 1.958670045391262e-02
1.467162868189753e-02 1.057108635114871e-01 5.162932032469064e-02
-4.074078398260017e-03 1.257729231984148e-01 7.735395930569881e-02
3.643642729011187e-03 7.843786909927827e-02 4.438370744664946e-02
1.787500133012454e-02 8.194200625750642e-02 3.541910620936310e-02
1.527181858440230e-02 1.226217535041368e-01 6.072144914133600e-02
-1.250902360241390e-04 1.017541385421433e-01 6.064213969510647e-02
2.184543924979110e-02 7.517053453813914e-02 2.828652827990361e-02
1.858232260821713e-02 9.853357058215800e-02 4.429751410282387e-02
3.643642729011187e-03 7.843786909927827e-02 4.438370744664946e-02
-4.074078398260017e-03 1.257729231984148e-01 7.735395930569881e-02
-5.222819187270300e-02 9.255401983962519e-02 9.555805022082339e-02
-4.220923140490962e-02 4.691985247337033e-02 6.224249337913866e-02
-1.250902360241390e-04 1.017541385421433e-01 6.064213969510647e-02
-3.203349818991885e-02 1.133184601247520e-01 9.178375193980369e-02
-4.699640466402943e-02 6.947369777612467e-02 7.866718372323210e-02
-2.288867058950750e-02 6.673605344176066e-02 5.844872871422011e-02
-2.728868847535493e-02 8.971714510504723e-02 7.487852298616211e-02
-5.222819187270300e-02 9.255401983962519e-02 9.555805022082339e-02
-6.426014868808672e-02 1.408521663430936e-01 1.311185551090520e-01
-4.354623819918779e-02 1.202265328202451e-01 1.041701169187800e-01
-3.348248479254545e-02 7.249196015269749e-02 6.983341123981524e-02
-5.796331716862713e-02 1.163006048099690e-01 1.130103278005661e-01
-6.456827941994958e-02 1.231557617128365e-01 1.214922102934382e-01
-3.831375445863938e-02 9.596554344947324e-02 8.670994595913434e-02
-5.282838177520777e-02 7.564312984697542e-02 8.646592140417803e-02
-5.843116533449444e-02 9.902104960301893e-02 1.036690038399651e-01
-3.348248479254545e-02 7.249196015269749e-02 6.983341123981524e-02
-4.354623819918779e-02 1.202265328202451e-01 1.041701169187800e-01
7.949352216588323e-03 1.558776487640646e-01 8.559093637492178e-02
1.467162868189753e-02 1.057108635114871e-01 5.162932032469064e-02
-3.831375445863938e-02 9.596554344947324e-02 8.670994595913434e-02
-1.350845166415748e-02 1.337803822233044e-01 8.929932235525904e-02
1.138345710485056e-02 1.303054355860624e-01 6.831910941436613e-02
-5.523065000886618e-03 8.494642322636030e-02 5.540361860571034e-02
-9.395590992305580e-03 1.089239604141646e-01 7.206754025959418e-02
1.467162868189753e-02 1.057108635114871e-01 5.162932032469064e-02
7.949352216588323e-03 1.558776487640646e-01 8.559093637492178e-02
-1.276455827231060e-02 1.765032822869131e-01 1.125393745651938e-01
-4.074078398260017e-03 1.257729231984148e-01 7.735395930569881e-02
1.138345710485056e-02 1.303054355860624e-01 6.831910941436613e-02
8.257482948451189e-03 1.735740533943217e-01 9.521728119053557e-02
-8.266105605137186e-03 1.506404969465582e-01 9.461949125579783e-02
1.527181858440230e-02 1.226217535041368e-01 6.072144914133600e-02
1.185130527071787e-02 1.475849907930125e-01 7.766043337496710e-02
-4.074078398260017e-03 1.257729231984148e-01 7.735395930569881e-02
-1.276455827231060e-02 1.765032822869131e-01 1.125393745651938e-01
-6.426014868808672e-02 1.408521663430936e-01 1.311185551090520e-01
-5.222819187270300e-02 9.255401983962519e-02 9.555805022082339e-02
-8.266105605137186e-03 1.506404969465582e-01 9.461949125579783e-02
-4.280234480734091e-02 1.629494328838538e-01 1.274101691287148e-01
-5.796331716862713e-02 1.163006048099690e-01 1.130103278005660e-01
-3.203349818991885e-02 1.133184601247520e-01 9.178375193980369e-02
-3.718426907147099e-02 1.376820799818668e-01 1.092618969553380e-01
-6.426014868808672e-02 1.408521663430936e-01 1.311185551090520e-01
-7.877019605576141e-02 1.929198770818045e-01 1.696774367419264e-01
-5.543619622764595e-02 1.716870792082464e-01 1.412253174959471e-01
-4.354623819918779e-02 1.202265328202451e-01 1.041701169187800e-01
-7.117662929255819e-02 1.663463721418895e-01 1.499765587875162e-01
-7.866654645744942e-02 1.742509964592621e-01 1.593721539589608e-01
-4.923543262686891e-02 1.454190331909185e-01 1.223099838560196e-01
-6.456827941994958e-02 1.231557617128365e-01 1.214922102934382e-01
-7.129518807101376e-02 1.481863160107998e-01 1.400290103550062e-01
-4.354623819918779e-02 1.202265328202451e-01 1.041701169187800e-01
-5.543619622764595e-02 1.716870792082464e-01 1.412253174959471e-01
3.965980898432697e-04 2.105679002013078e-01 1.222941322514984e-01
7.949352216588323e-03 1.558776487640646e-01 8.559093637492178e-02
-4.923543262686891e-02 1.454190331909185e-01 1.223099838560196e-01
-2.268716947229277e-02 1.867300332815999e-01 1.258670980387522e-01
4.307754359905713e-03 1.825804752813724e-01 1.035479761082471e-01
-1.350845166415748e-02 1.337803822233044e-01 8.929932235525904e-02
-1.791966851666982e-02 1.596655604272100e-01 1.071990447016147e-01
7.949352216588323e-03 1.558776487640646e-01 8.559093637492178e-02
3.965980898432697e-04 2.105679002013078e-01 1.222941322514984e-01
-2.293740173827219e-02 2.318006980748659e-01 1.507462514974776e-01
-1.276455827231060e-02 1.765032822869131e-01 1.125393745651938e-01
4.307754359905713e-03 1.825804752813724e-01 1.035479761082471e-01
2.929484915312752e-04 2.292367808238502e-01 1.325994150344640e-01
-1.763344230578356e-02 2.035078142323434e-01 1.312145510397437e-01
8.257482948451189e-03 1.735740533943217e-01 9.521728119053557e-02
4.426313138361282e-03 2.007405314124621e-01 1.134955245407571e-01
-1.276455827231060e-02 1.765032822869131e-01 1.125393745651938e-01
-2.293740173827219e-02 2.318006980748659e-01 1.507462514974776e-01
-7.877019605576141e-02 1.929198770818045e-01 1.696774367419264e-01
-6.426014868808672e-02 1.408521663430936e-01 1.311185551090520e-01
-1.763344230578356e-02 2.035078142323434e-01 1.312145510397437e-01
-5.568642849362537e-02 2.167577440015123e-01 1.661044709546726e-01
-7.117662929255819e-02 1.663463721418896e-01 1.499765587875162e-01
-4.280234480734091e-02 1.629494328838538e-01 1.274101691287148e-01
-4.894920641598266e-02 1.892612869960519e-01 1.463254901941486e-01
1.094285809379980e-02 -4.641569254733291e-02 -9.444244070950791e-03
-2.498169059673927e-03 -2.453678391598824e-02 3.823839726368661e-02
4.650251602556610e-03 -2.370733508608791e-02 3.863627049137452e-03
1.808271143979567e-02 -4.554243761553800e-02 -4.343433448057388e-02
4.241823433427827e-03 -3.538219343339577e-02 1.433772607652539e-02
2.136031571107644e-03 -3.532250250096158e-02 2.451373292791414e-02
1.135612145396681e-02 -3.457762033566092e-02 -1.977754126792330e-02
1.552033396248742e-02 -5.710792655599750e-02 -2.298698920401776e-02
8.835953867926349e-03 -4.611206727684514e-02 7.331350657158175e-04
1.808271143979567e-02 -4.554243761553800e-02 -4.343433448057388e-02
4.650251602556610e-03 -2.370733508608791e-02 3.863627049137452e-03
-4.678343123196704e-04 3.037318770391573e-02 -1.285586784940485e-02
1.321783357381179e-02 8.192458995780250e-03 -6.010351378974699e-02
1.135612145396681e-02 -3.457762033566092e-02 -1.977754126792330e-02
3.571695039040534e-03 3.504710786233378e-03 -1.161536841329625e-02
6.349132217360554e-03 1.917320485962648e-02 -3.645030611720390e-02
1.712898455143708e-02 -1.849413229179975e-02 -5.880850235213719e-02
1.032604619909949e-02 -7.535575193516220e-03 -3.517942690159126e-02
1.321783357381179e-02 8.192458995780250e-03 -6.010351378974699e-02
-4.678343123196704e-04 3.037318770391573e-02 -1.285586784940485e-02
-7.616254974550207e-03 2.954373887401540e-02 2.151890236514431e-02
6.077980227815694e-03 7.319204063985341e-03 -2.611342338012390e-02
6.349132217360554e-03 1.917320485962648e-02 -3.645030611720390e-02
-5.102034943101241e-03 4.115890628888885e-02 8.687964863676179e-04
-7.651658031784248e-04 1.836863176189163e-02 -2.335038772755205e-03
8.640357705123947e-03 1.888469300444484e-02 -4.656076865668002e-02
1.755001782862031e-03 2.990307870307585e-02 -2.284571510639433e-02
6.077980227815694e-03 7.319204063985341e-03 -2.611342338012390e-02
-7.616254974550207e-03 2.954373887401540e-02 2.151890236514431e-02
-2.498169059673927e-03 -2.453678391598824e-02 3.823839726368661e-02
1.094285809379958e-02 -4.641569254733291e-02 -9.444244070950791e-03
-7.651658031784248e-04 1.836863176189163e-02 -2.335038772755205e-03
-6.537698411034132e-03 2.331693001694113e-03 3.699789782757801e-02
4.241823433427827e-03 -3.538219343339577e-02 1.433772607652539e-02
7.031707116174291e-03 -1.972910125975291e-02 -1.073925550856059e-02
2.649094516888884e-04 -8.673413380253070e-03 1.306684686091275e-02
-2.498169059673927e-03 -2.453678391598824e-02 3.823839726368661e-02
-1.635866280122134e-02 -3.229459624804809e-03 8.705851190958125e-02
-8.963863965913310e-03 -2.064181305581503e-03 5.176338394720092e-02
4.650251602556610e-03 -2.370733508608791e-02 3.863627049137452e-03
-9.343136936456053e-03 -1.383412940217066e-02 6.242371382424805e-02
-1.157392457574002e-02 -1.417894954088417e-02 7.291805300806731e-02
-2.101095443513668e-03 -1.288510810247501e-02 2.765538965857983e-02
2.136031571107644e-03 -3.532250250096158e-02 2.451373292791414e-02
-4.645425785894330e-03 -2.469335599941558e-02 4.852052902686932e-02
4.650251602556610e-03 -2.370733508608791e-02 3.863627049137452e-03
-8.963863965913310e-03 -2.064181305581503e-03 5.176338394720092e-02
-1.421400015941532e-02 5.361786352955966e-02 3.482958265115865e-02
-4.678343123196704e-04 3.037318770391573e-02 -1.285586784940485e-02
-2.101095443513668e-03 -1.288510810247501e-02 2.765538965857983e-02
-1.005741907836155e-02 2.601817815386975e-02 3.598662295532362e-02
-7.299816595578656e-03 4.183901624613262e-02 1.084774451286341e-02
3.571695039040534e-03 3.504710786233378e-03 -1.161536841329625e-02
-3.200580116723639e-03 1.467350281848612e-02 1.205081138051955e-02
-4.678343123196704e-04 3.037318770391573e-02 -1.285586784940485e-02
-1.421400015941532e-02 5.361786352955966e-02 3.482958265115865e-02
-2.160879899472357e-02 5.245258521033636e-02 7.012471061353898e-02
-7.616254974550207e-03 2.954373887401540e-02 2.151890236514431e-02
-7.299816595578656e-03 4.183901624613262e-02 1.084774451286341e-02
-1.899873838489685e-02 6.456735344563902e-02 4.897004155267259e-02
-1.454185808852104e-02 4.088999494643697e-02 4.561606867853163e-02
-5.102034943101241e-03 4.115890628888885e-02 8.687964863676179e-04
-1.199752774614038e-02 5.269824284337754e-02 2.475092931024214e-02
-7.616254974550207e-03 2.954373887401540e-02 2.151890236514431e-02
-2.160879899472357e-02 5.245258521033636e-02 7.012471061353898e-02
-1.635866280122156e-02 -3.229459624804809e-03 8.705851190958125e-02
-2.498169059673927e-03 -2.453678391598824e-02 3.823839726368661e-02
-1.454185808852104e-02 4.088999494643697e-02 4.561606867853163e-02
-2.051524388227532e-02 2.437022575088510e-02 8.590147160541628e-02
-9.343136936456053e-03 -1.383412940217066e-02 6.242371382424805e-02
-6.537698411034132e-03 2.331693001694113e-03 3.699789782757801e-02
-1.344237341531107e-02 1.333138402547585e-02 6.122064695659191e-02
-1.635866280122134e-02 -3.229459624804809e-03 8.705851190958125e-02
-3.116152167964636e-02 1.786232941153054e-02 1.383302871076642e-01
-2.328619452192293e-02 1.976230873624085e-02 1.015877487593912e-01
-8.963863965913310e-03 -2.064181305581503e-03 5.176338394720092e-02
-2.360989095774735e-02 7.321453450669591e-03 1.123065087041248e-01
-2.613163576607569e-02 6.687526957941614e-03 1.235374079927718e-01
-1.600374791385617e-02 8.802500547381964e-03 7.635267180457106e-02
-1.157392457574002e-02 -1.417894954088417e-02 7.291805300806731e-02
-1.871448423404076e-02 -3.733778184018544e-03 9.786963634989876e-02
-8.963863965913310e-03 -2.064181305581503e-03 5.176338394720092e-02
-2.328619452192293e-02 1.976230873624085e-02 1.015877487593912e-01
-2.855991046908479e-02 7.830598387077359e-02 8.430975313441680e-02
-1.421400015941532e-02 5.361786352955966e-02 3.482958265115865e-02
-1.600374791385617e-02 8.802500547381964e-03 7.635267180457106e-02
-2.429201883707688e-02 4.942764490576890e-02 8.533912209696970e-02
-2.127800883135422e-02 6.575744483005819e-02 5.925981721396179e-02
-1.005741907836155e-02 2.601817815386975e-02 3.598662295532362e-02
-1.706559456954049e-02 3.758670758570570e-02 6.035996107769304e-02
-1.421400015941532e-02 5.361786352955966e-02 3.482958265115865e-02
-2.855991046908479e-02 7.830598387077359e-02 8.430975313441680e-02
-3.643523762680823e-02 7.640600454606328e-02 1.210522914826897e-01
-2.160879899472357e-02 5.245258521033636e-02 7.012471061353898e-02
-2.127800883135422e-02 6.575744483005819e-02 5.925981721396179e-02
-3.358979638265547e-02 8.948078632436252e-02 9.910263224930915e-02
-2.888415187524540e-02 6.427639773334581e-02 9.521365411351557e-02
-1.899873838489685e-02 6.456735344563902e-02 4.897004155267259e-02
-2.617341555506081e-02 7.681267646474632e-02 7.369668956818787e-02
-2.160879899472357e-02 5.245258521033636e-02 7.012471061353898e-02
-3.643523762680823e-02 7.640600454606328e-02 1.210522914826897e-01
-3.116152167964636e-02 1.786232941153054e-02 1.383302871076642e-01
-1.635866280122156e-02 -3.229459624804809e-03 8.705851190958125e-02
-2.888415187524540e-02 6.427639773334581e-02 9.521365411351557e-02
-3.542941331165439e-02 4.674066837653523e-02 1.373009181451113e-01
-2.360989095774735e-02 7.321453450669591e-03 1.123065087041248e-01
-2.051524388227532e-02 2.437022575088510e-02 8.590147160541628e-02
-2.782230521956119e-02 3.549219069502207e-02 1.112063648403936e-01
-3.116152167964636e-02 1.786232941153054e-02 1.383302871076642e-01
-4.742252214737641e-02 3.908659244128576e-02 1.933497288620587e-01
-3.883935988850806e-02 4.215252375381295e-02 1.546504968579301e-01
-2.328619452192293e-02 1.976230873624085e-02 1.015877487593912e-01
-3.907780327154597e-02 2.843642509066102e-02 1.652912763133214e-01
-4.205138160529442e-02 2.763964546975983e-02 1.776639885158176e-01
-3.087640892403254e-02 3.086295534599515e-02 1.276325561818594e-01
-2.613163576607569e-02 6.687526957941614e-03 1.235374079927718e-01