<?xml version="1.0" ?> 
<!-- 
# vtk DataFile Version 3.0
-->
<VTKFile type="UnstructuredGrid" version="0.1" compressor="vtkZLibDataCompressor" byte_order="LittleEndian">
  <UnstructuredGrid>
    <FieldData>
      <DataArray type="Float64" Name="TIME" NumberOfTuples="1" format="ascii">
1.000000000000000e+00 
      </DataArray>
    </FieldData>

    <Piece NumberOfPoints="720" NumberOfCells="80" >
      <Points>
        <DataArray type="Float64" NumberOfComponents="3" format="ascii">
-2.500000000000000e+00 1.250000000000000e-01 0.000000000000000e+00
-2.300000000000000e+00 1.250000000000000e-01 0.000000000000000e+00
-2.300000000000000e+00 7.654042494670958e-18 1.250000000000000e-01
-2.500000000000000e+00 7.654042494670958e-18 1.250000000000000e-01
-2.400000000000000e+00 1.250000000000000e-01 0.000000000000000e+00
-2.300000000000000e+00 8.838834764831845e-02 8.838834764831843e-02
-2.400000000000000e+00 7.654042494670958e-18 1.250000000000000e-01
-2.500000000000000e+00 8.838834764831845e-02 8.838834764831843e-02
-2.400000000000000e+00 8.838834764831845e-02 8.838834764831843e-02
-2.500000000000000e+00 7.654042494670958e-18 1.250000000000000e-01
-2.300000000000000e+00 7.654042494670958e-18 1.250000000000000e-01
-2.300000000000000e+00 -1.250000000000000e-01 1.530808498934192e-17
-2.500000000000000e+00 -1.250000000000000e-01 1.530808498934192e-17
-2.400000000000000e+00 7.654042494670958e-18 1.250000000000000e-01
-2.300000000000000e+00 -8.838834764831843e-02 8.838834764831845e-02
-2.400000000000000e+00 -1.250000000000000e-01 1.530808498934192e-17
-2.500000000000000e+00 -8.838834764831843e-02 8.838834764831845e-02
-2.400000000000000e+00 -8.838834764831843e-02 8.838834764831845e-02
-2.500000000000000e+00 -1.250000000000000e-01 1.530808498934192e-17
-2.300000000000000e+00 -1.250000000000000e-01 1.530808498934192e-17
-2.300000000000000e+00 -2.296212748401287e-17 -1.250000000000000e-01
-2.500000000000000e+00 -2.296212748401287e-17 -1.250000000000000e-01
-2.400000000000000e+00 -1.250000000000000e-01 1.530808498934192e-17
-2.300000000000000e+00 -8.838834764831846e-02 -8.838834764831843e-02
-2.400000000000000e+00 -2.296212748401287e-17 -1.250000000000000e-01
-2.500000000000000e+00 -8.838834764831846e-02 -8.838834764831843e-02
-2.400000000000000e+00 -8.838834764831846e-02 -8.838834764831843e-02
-2.500000000000000e+00 -2.296212748401287e-17 -1.250000000000000e-01
-2.300000000000000e+00 -2.296212748401287e-17 -1.250000000000000e-01
-2.300000000000000e+00 1.250000000000000e-01 -3.061616997868383e-17
-2.500000000000000e+00 1.250000000000000e-01 -3.061616997868383e-17
-2.400000000000000e+00 -2.296212748401287e-17 -1.250000000000000e-01
-2.300000000000000e+00 8.838834764831842e-02 -8.838834764831846e-02
-2.400000000000000e+00 1.250000000000000e-01 -3.061616997868383e-17
-2.500000000000000e+00 8.838834764831842e-02 -8.838834764831846e-02
-2.400000000000000e+00 8.838834764831842e-02 -8.838834764831846e-02
-2.300000000000000e+00 1.250000000000000e-01 0.000000000000000e+00
-2.100000000000000e+00 1.250000000000000e-01 0.000000000000000e+00
-2.100000000000000e+00 7.654042494670958e-18 1.250000000000000e-01
-2.300000000000000e+00 7.654042494670958e-18 1.250000000000000e-01
-2.200000000000000e+00 1.250000000000000e-01 0.000000000000000e+00
-2.100000000000000e+00 8.838834764831845e-02 8.838834764831843e-02
-2.200000000000000e+00 7.654042494670958e-18 1.250000000000000e-01
-2.300000000000000e+00 8.838834764831845e-02 8.838834764831843e-02
-2.200000000000000e+00 8.838834764831845e-02 8.838834764831843e-02
-2.300000000000000e+00 7.654042494670958e-18 1.250000000000000e-01
-2.100000000000000e+00 7.654042494670958e-18 1.250000000000000e-01
-2.100000000000000e+00 -1.250000000000000e-01 1.530808498934192e-17
-2.300000000000000e+00 -1.250000000000000e-01 1.530808498934192e-17
-2.200000000000000e+00 7.654042494670958e-18 1.250000000000000e-01
-2.100000000000000e+00 -8.838834764831843e-02 8.838834764831845e-02
-2.200000000000000e+00 -1.250000000000000e-01 1.530808498934192e-17
-2.300000000000000e+00 -8.838834764831843e-02 8.838834764831845e-02
-2.200000000000000e+00 -8.838834764831843e-02 8.838834764831845e-02
-2.300000000000000e+00 -1.250000000000000e-01 1.530808498934192e-17
-2.100000000000000e+00 -1.250000000000000e-01 1.530808498934192e-17
-2.100000000000000e+00 -2.296212748401287e-17 -1.250000000000000e-01
-2.300000000000000e+00 -2.296212748401287e-17 -1.250000000000000e-01
-2.200000000000000e+00 -1.250000000000000e-01 1.530808498934192e-17
-2.100000000000000e+00 -8.838834764831846e-02 -8.838834764831843e-02
-2.200000000000000e+00 -2.296212748401287e-17 -1.250000000000000e-01
-2.300000000000000e+00 -8.838834764831846e-02 -8.838834764831843e-02
-2.200000000000000e+00 -8.838834764831846e-02 -8.838834764831843e-02
-2.300000000000000e+00 -2.296212748401287e-17 -1.250000000000000e-01
-2.100000000000000e+00 -2.296212748401287e-17 -1.250000000000000e-01
-2.100000000000000e+00 1.250000000000000e-01 -3.061616997868383e-17
-2.300000000000000e+00 1.250000000000000e-01 -3.061616997868383e-17
-2.200000000000000e+00 -2.296212748401287e-17 -1.250000000000000e-01
-2.100000000000000e+00 8.838834764831842e-02 -8.838834764831846e-02
-2.200000000000000e+00 1.250000000000000e-01 -3.061616997868383e-17
-2.300000000000000e+00 8.838834764831842e-02 -8.838834764831846e-02
-2.200000000000000e+00 8.838834764831842e-02 -8.838834764831846e-02
-2.100000000000000e+00 1.250000000000000e-01 0.000000000000000e+00
-1.900000000000000e+00 1.250000000000000e-01 0.000000000000000e+00
-1.900000000000000e+00 7.654042494670958e-18 1.250000000000000e-01
-2.100000000000000e+00 7.654042494670958e-18 1.250000000000000e-01
-2.000000000000000e+00 1.250000000000000e-01 0.000000000000000e+00
-1.900000000000000e+00 8.838834764831845e-02 8.838834764831843e-02
-2.000000000000000e+00 7.654042494670958e-18 1.250000000000000e-01
-2.100000000000000e+00 8.838834764831845e-02 8.838834764831843e-02
-2.000000000000000e+00 8.838834764831845e-02 8.838834764831843e-02
-2.100000000000000e+00 7.654042494670958e-18 1.250000000000000e-01
-1.900000000000000e+00 7.654042494670958e-18 1.250000000000000e-01
-1.900000000000000e+00 -1.250000000000000e-01 1.530808498934192e-17
-2.100000000000000e+00 -1.250000000000000e-01 1.530808498934192e-17
-2.000000000000000e+00 7.654042494670958e-18 1.250000000000000e-01
-1.900000000000000e+00 -8.838834764831843e-02 8.838834764831845e-02
-2.000000000000000e+00 -1.250000000000000e-01 1.530808498934192e-17
-2.100000000000000e+00 -8.838834764831843e-02 8.838834764831845e-02
-2.000000000000000e+00 -8.838834764831843e-02 8.838834764831845e-02
-2.100000000000000e+00 -1.250000000000000e-01 1.530808498934192e-17
-1.900000000000000e+00 -1.250000000000000e-01 1.530808498934192e-17
-1.900000000000000e+00 -2.296212748401287e-17 -1.250000000000000e-01
-2.100000000000000e+00 -2.296212748401287e-17 -1.250000000000000e-01
-2.000000000000000e+00 -1.250000000000000e-01 1.530808498934192e-17
-1.900000000000000e+00 -8.838834764831846e-02 -8.838834764831843e-02
-2.000000000000000e+00 -2.296212748401287e-17 -1.250000000000000e-01
-2.100000000000000e+00 -8.838834764831846e-02 -8.838834764831843e-02
-2.000000000000000e+00 -8.838834764831846e-02 -8.838834764831843e-02
-2.100000000000000e+00 -2.296212748401287e-17 -1.250000000000000e-01
-1.900000000000000e+00 -2.296212748401287e-17 -1.250000000000000e-01
-1.900000000000000e+00 1.250000000000000e-01 -3.061616997868383e-17
-2.100000000000000e+00 1.250000000000000e-01 -3.061616997868383e-17
-2.000000000000000e+00 -2.296212748401287e-17 -1.250000000000000e-01
-1.900000000000000e+00 8.838834764831842e-02 -8.838834764831846e-02
-2.000000000000000e+00 1.250000000000000e-01 -3.061616997868383e-17
-2.100000000000000e+00 8.838834764831842e-02 -8.838834764831846e-02
-2.000000000000000e+00 8.838834764831842e-02 -8.838834764831846e-02
-1.900000000000000e+00 1.250000000000000e-01 0.000000000000000e+00
-1.700000000000000e+00 1.250000000000000e-01 0.000000000000000e+00
-1.700000000000000e+00 7.654042494670958e-18 1.250000000000000e-01
-1.900000000000000e+00 7.654042494670958e-18 1.250000000000000e-01
-1.800000000000000e+00 1.250000000000000e-01 0.000000000000000e+00
-1.700000000000000e+00 8.838834764831845e-02 8.838834764831843e-02
-1.800000000000000e+00 7.654042494670958e-18 1.250000000000000e-01
-1.900000000000000e+00 8.838834764831845e-02 8.838834764831843e-02
-1.800000000000000e+00 8.838834764831845e-02 8.838834764831843e-02
-1.900000000000000e+00 7.654042494670958e-18 1.250000000000000e-01
-1.700000000000000e+00 7.654042494670958e-18 1.250000000000000e-01
-1.700000000000000e+00 -1.250000000000000e-01 1.530808498934192e-17
-1.900000000000000e+00 -1.250000000000000e-01 1.530808498934192e-17
-1.800000000000000e+00 7.654042494670958e-18 1.250000000000000e-01
-1.700000000000000e+00 -8.838834764831843e-02 8.838834764831845e-02
-1.800000000000000e+00 -1.250000000000000e-01 1.530808498934192e-17
-1.900000000000000e+00 -8.838834764831843e-02 8.838834764831845e-02
-1.800000000000000e+00 -8.838834764831843e-02 8.838834764831845e-02
-1.900000000000000e+00 -1.250000000000000e-01 1.530808498934192e-17
-1.700000000000000e+00 -1.250000000000000e-01 1.530808498934192e-17
-1.700000000000000e+00 -2.296212748401287e-17 -1.250000000000000e-01
-1.900000000000000e+00 -2.296212748401287e-17 -1.250000000000000e-01
-1.800000000000000e+00 -1.250000000000000e-01 1.530808498934192e-17
-1.700000000000000e+00 -8.838834764831846e-02 -8.838834764831843e-02
-1.800000000000000e+00 -2.296212748401287e-17 -1.250000000000000e-01
-1.900000000000000e+00 -8.838834764831846e-02 -8.838834764831843e-02
-1.800000000000000e+00 -8.838834764831846e-02 -8.838834764831843e-02
-1.900000000000000e+00 -2.296212748401287e-17 -1.250000000000000e-01
-1.700000000000000e+00 -2.296212748401287e-17 -1.250000000000000e-01
-1.700000000000000e+00 1.250000000000000e-01 -3.061616997868383e-17
-1.900000000000000e+00 1.250000000000000e-01 -3.061616997868383e-17
-1.800000000000000e+00 -2.296212748401287e-17 -1.250000000000000e-01
[...]
  <PointData>
        <DataArray type="Float64" Name="displacement" NumberOfComponents="3" format="ascii">
-2.410663900794940e-02 -3.724941430379095e-02 1.509708188011657e-03
-3.040026470537560e-02 3.364382341700473e-03 2.973738255474048e-02
-1.478624622231894e-02 -1.549004156208670e-02 6.285928335171387e-03
-8.589748111247353e-03 -5.590095638570459e-02 -2.164010499631269e-02
-2.715889891554024e-02 -1.692559400042297e-02 1.558187169885769e-02
-3.109525570470151e-02 -1.203495703498364e-02 2.164403359789174e-02
-1.166297952192696e-02 -3.565894374256685e-02 -7.680226543492596e-03
-2.481873333925844e-02 -5.247588428209124e-02 -6.472078267295012e-03
-2.787181281029261e-02 -3.221335644393973e-02 7.560529628792612e-03
-8.589748111247353e-03 -5.590095638570459e-02 -2.164010499631269e-02
-1.478624622231894e-02 -1.549004156208670e-02 6.285928335171387e-03
2.626504235522154e-02 1.334594048821253e-02 -1.125274486579937e-02
3.230963592210490e-02 -2.740986158167433e-02 -3.898922372757745e-02
-1.166297952192696e-02 -3.565894374256685e-02 -7.680226543492596e-03
8.973167175864383e-03 -4.976929582777151e-03 -7.340363462872632e-03
2.918973202660435e-02 -7.069403899776672e-03 -2.510943398146002e-02
1.507359723306756e-02 -4.551826982844004e-02 -3.510914765562038e-02
1.197268623947645e-02 -2.524397758710901e-02 -2.121256855309471e-02
3.230963592210490e-02 -2.740986158167433e-02 -3.898922372757745e-02
2.626504235522154e-02 1.334594048821253e-02 -1.125274486579937e-02
1.065102387216488e-02 3.220036439199970e-02 1.219870935376974e-02
1.679274502540284e-02 -8.758319499760680e-03 -1.583941054325311e-02
2.918973202660435e-02 -7.069403899776672e-03 -2.510943398146002e-02
2.696003335454744e-02 2.874527986489664e-02 -3.159395908950646e-03
1.369381263299108e-02 1.166394584236722e-02 -1.847335739109751e-03
3.302173025341393e-02 -1.218339160337402e-02 -3.100743727227076e-02
2.990264592135672e-02 8.218358543740104e-03 -1.708809191139496e-02
1.679274502540284e-02 -8.758319499760680e-03 -1.583941054325311e-02
1.065102387216488e-02 3.220036439199970e-02 1.219870935376974e-02
-3.040026470537560e-02 3.364382341700473e-03 2.973738255474048e-02
-2.410663900794940e-02 -3.724941430379095e-02 1.509708188011656e-03
1.369381263299108e-02 1.166394584236722e-02 -1.847335739109751e-03
-1.310838952601845e-02 2.168725241269015e-02 2.582500115181374e-02
-2.715889891554024e-02 -1.692559400042297e-02 1.558187169885769e-02
-6.870600318912068e-03 -1.914100605702523e-02 -2.370367883945401e-03
-9.941853128412337e-03 1.248979686909388e-03 1.168500627049238e-02
-3.040026470537560e-02 3.364382341700473e-03 2.973738255474048e-02
-3.764822322840455e-02 4.437228963099910e-02 5.864354397305686e-02
-2.137801907281434e-02 2.516208352878891e-02 3.458261922488129e-02
-1.478624622231894e-02 -1.549004156208670e-02 6.285928335171387e-03
-3.388024745085483e-02 2.375312301671231e-02 4.406264562248460e-02
-3.824906837937725e-02 2.859992160066471e-02 5.030809434624342e-02
-1.800844892936615e-02 4.739209244291615e-03 2.034481903737065e-02
-3.109525570470151e-02 -1.203495703498364e-02 2.164403359789174e-02
-3.453812799977740e-02 8.192130142129397e-03 3.586466754058032e-02
-1.478624622231894e-02 -1.549004156208670e-02 6.285928335171387e-03
-2.137801907281434e-02 2.516208352878891e-02 3.458261922488129e-02
2.080286548691834e-02 5.494027303999688e-02 1.674151944965882e-02
2.626504235522154e-02 1.334594048821253e-02 -1.125274486579937e-02
-1.800844892936615e-02 4.739209244291615e-03 2.034481903737065e-02
3.082092818964544e-03 3.607261433263398e-02 2.067888866030367e-02
2.348599060772605e-02 3.397068082473936e-02 2.668260164316808e-03
8.973167175864383e-03 -4.976929582777151e-03 -7.340363462872632e-03
6.025927942606923e-03 1.541703455535087e-02 6.594416880060058e-03
2.626504235522154e-02 1.334594048821253e-02 -1.125274486579937e-02
2.080286548691834e-02 5.494027303999688e-02 1.674151944965882e-02
4.532661331328125e-03 7.415047914220707e-02 4.080244419783441e-02
1.065102387216488e-02 3.220036439199970e-02 1.219870935376974e-02
2.348599060772605e-02 3.397068082473936e-02 2.668260164316808e-03
2.140371063789104e-02 7.071264107033126e-02 2.507696907647225e-02
7.614192086237370e-03 5.298459459716005e-02 2.638608674943074e-02
2.696003335454744e-02 2.874527986489664e-02 -3.159395908950646e-03
2.414387115664862e-02 4.953167369932227e-02 1.086623824622107e-02
1.065102387216488e-02 3.220036439199970e-02 1.219870935376974e-02
4.532661331328125e-03 7.415047914220707e-02 4.080244419783441e-02
-3.764822322840455e-02 4.437228963099910e-02 5.864354397305686e-02
-3.040026470537560e-02 3.364382341700473e-03 2.973738255474048e-02
7.614192086237370e-03 5.298459459716005e-02 2.638608674943074e-02
-1.992745056045075e-02 6.323994833836201e-02 5.470617476241203e-02
-3.388024745085483e-02 2.375312301671231e-02 4.406264562248459e-02
-1.310838952601845e-02 2.168725241269015e-02 2.582500115181374e-02
-1.642018478573570e-02 4.230676928610079e-02 4.013648890674134e-02
-3.764822322840455e-02 4.437228963099910e-02 5.864354397305686e-02
-4.624487115413811e-02 8.682384834331569e-02 8.891312970758428e-02
-2.875061108755816e-02 6.712094544395562e-02 6.393823034348084e-02
-2.137801907281434e-02 2.516208352878891e-02 3.458261922488129e-02
-4.175341591824822e-02 6.535260240829180e-02 7.356543257455425e-02
-4.666747131433713e-02 7.048175525538285e-02 8.020310621923737e-02
-2.494291419474726e-02 4.591168195773389e-02 4.908521933914989e-02
-3.824906837937725e-02 2.859992160066471e-02 5.030809434624342e-02
-4.227627281921187e-02 4.931964502780280e-02 6.505940321213033e-02
-2.137801907281434e-02 2.516208352878891e-02 3.458261922488129e-02
-2.875061108755816e-02 6.712094544395562e-02 6.393823034348084e-02
1.552476290528770e-02 9.846053558710259e-02 4.569920324806968e-02
2.080286548691834e-02 5.494027303999688e-02 1.674151944965882e-02
-2.494291419474726e-02 4.591168195773389e-02 4.908521933914989e-02
-2.989744199505484e-03 7.871013571601156e-02 4.964624577801784e-02
1.816580349939745e-02 7.639111444683325e-02 3.105549943386660e-02
3.082092818964544e-03 3.607261433263398e-02 2.067888866030367e-02
9.301355441015957e-05 5.712505174446479e-02 3.500034122056334e-02
2.080286548691834e-02 5.494027303999688e-02 1.674151944965882e-02
1.552476290528770e-02 9.846053558710259e-02 4.569920324806968e-02
-1.969497161292244e-03 1.181634384864627e-01 7.067410261217312e-02
4.532661331328125e-03 7.415047914220707e-02 4.080244419783441e-02
1.816580349939745e-02 7.639111444683325e-02 3.105549943386660e-02
1.594736306548672e-02 1.148026286750354e-01 5.440922673641656e-02
1.355301775896711e-03 9.583203489739116e-02 5.553571266927095e-02
2.140371063789104e-02 7.071264107033126e-02 2.507696907647225e-02
1.868866040036088e-02 9.242407182732224e-02 3.956152879629052e-02
4.532661331328125e-03 7.415047914220707e-02 4.080244419783441e-02
-1.969497161292244e-03 1.181634384864627e-01 7.067410261217312e-02
-4.624487115413811e-02 8.682384834331569e-02 8.891312970758426e-02
-3.764822322840455e-02 4.437228963099910e-02 5.864354397305686e-02
1.355301775896711e-03 9.583203489739116e-02 5.553571266927095e-02
-2.773036404934492e-02 1.065742482144067e-01 8.496608717763611e-02
-4.175341591824822e-02 6.535260240829180e-02 7.356543257455425e-02
-1.992745056045075e-02 6.323994833836201e-02 5.470617476241203e-02
-2.368062597326093e-02 8.461866511066025e-02 6.962059078785751e-02
-4.624487115413811e-02 8.682384834331569e-02 8.891312970758428e-02
-5.658164268434973e-02 1.317536929169654e-01 1.212224732198394e-01
-3.728185795823435e-02 1.114495501687045e-01 9.503656335742372e-02
-2.875061108755816e-02 6.712094544395562e-02 6.393823034348084e-02
-5.117142146607789e-02 1.089148925084570e-01 1.047709062728205e-01
-5.673024713174435e-02 1.146512248715983e-01 1.120028332445023e-01
-3.284809683301049e-02 8.892267401287896e-02 7.922698879230133e-02
-4.666747131433713e-02 7.048175525538285e-02 8.020310621923737e-02
-5.146989689499670e-02 9.221595559526745e-02 9.582313435612005e-02
-2.875061108755816e-02 6.712094544395562e-02 6.393823034348084e-02
-3.728185795823435e-02 1.114495501687045e-01 9.503656335742372e-02
1.002946982309316e-02 1.450090339838492e-01 7.633454436181254e-02
1.552476290528770e-02 9.846053558710259e-02 4.569920324806968e-02
-3.284809683301049e-02 8.892267401287896e-02 7.922698879230133e-02
-9.629077775351602e-03 1.240241664269324e-01 8.026227435557216e-02
1.282948886096746e-02 1.212867889249980e-01 6.076218140333148e-02
-2.989744199505484e-03 7.871013571601156e-02 4.964624577801784e-02
-6.214419200630816e-03 1.009642074475412e-01 6.470426656953131e-02
1.552476290528770e-02 9.846053558710259e-02 4.569920324806968e-02
1.002946982309316e-02 1.450090339838492e-01 7.633454436181254e-02
-9.270314903022214e-03 1.653131767321101e-01 1.025204542242282e-01
-1.969497161292244e-03 1.181634384864627e-01 7.067410261217312e-02
1.282948886096746e-02 1.212867889249980e-01 6.076218140333148e-02
1.017807427048778e-02 1.621115020292163e-01 8.555418433714969e-02
-5.493835772099942e-03 1.412790074205761e-01 8.630609888385066e-02
1.594736306548672e-02 1.148026286750354e-01 5.440922673641656e-02
1.312796428988627e-02 1.379857258381876e-01 6.970995332003194e-02
-1.969497161292244e-03 1.181634384864627e-01 7.067410261217312e-02
-9.270314903022214e-03 1.653131767321101e-01 1.025204542242282e-01
-5.658164268434973e-02 1.317536929169654e-01 1.212224732198394e-01
-4.624487115413811e-02 8.682384834331569e-02 8.891312970758426e-02
-5.493835772099942e-03 1.412790074205761e-01 8.630609888385066e-02
-3.692309508590497e-02 1.527385604738822e-01 1.172947432260798e-01
-5.117142146607789e-02 1.089148925084570e-01 1.047709062728205e-01
-2.773036404934492e-02 1.065742482144067e-01 8.496608717763611e-02
-3.212751340447961e-02 1.292374739859139e-01 1.008288211066207e-01
-5.658164268434973e-02 1.317536929169654e-01 1.212224732198394e-01
-6.904579575018310e-02 1.801819773918936e-01 1.562389361098441e-01
-4.734157366001268e-02 1.592090599753902e-01 1.285571467611669e-01
-3.728185795823435e-02 1.114495501687045e-01 9.503656335742372e-02
-6.252380170421623e-02 1.554673194429360e-01 1.383509673875432e-01
-6.880855317433565e-02 1.621374685019372e-01 1.463716737966678e-01
-4.209786797932158e-02 1.348341668380988e-01 1.114517629696506e-01
-5.673024713174435e-02 1.146512248715983e-01 1.120028332445023e-01
-6.249463839150282e-02 1.379158505584164e-01 1.288249588839278e-01
-3.728185795823435e-02 1.114495501687045e-01 9.503656335742372e-02
-4.734157366001268e-02 1.592090599753902e-01 1.285571467611669e-01
3.911545182468057e-03 1.957025544829261e-01 1.093707524847617e-01
1.002946982309316e-02 1.450090339838492e-01 7.633454436181254e-02
-4.209786797932158e-02 1.348341668380988e-01 1.114517629696506e-01
-1.721992266351902e-02 1.731121738109348e-01 1.132308633334757e-01
7.073885313299888e-03 1.697673184261405e-01 9.250697669634769e-02
-9.629077775351602e-03 1.240241664269324e-01 8.026227435557216e-02
-1.328164194651804e-02 1.480274768104010e-01 9.640836218953046e-02
1.002946982309316e-02 1.450090339838492e-01 7.633454436181254e-02
3.911545182468057e-03 1.957025544829261e-01 1.093707524847617e-01
-1.779267690770236e-02 2.166754718994295e-01 1.370525418334389e-01
-9.270314903022214e-03 1.653131767321101e-01 1.025204542242282e-01
7.073885313299888e-03 1.697673184261405e-01 9.250697669634769e-02
3.674302606620605e-03 2.137470633728824e-01 1.192380147979380e-01
-1.335204841159476e-02 1.904004710309776e-01 1.194061811142403e-01
1.017807427048778e-02 1.621115020292163e-01 8.555418433714969e-02
7.044722000586479e-03 1.873187873106600e-01 1.020329851999631e-01
-9.270314903022214e-03 1.653131767321101e-01 1.025204542242282e-01
-1.779267690770236e-02 2.166754718994295e-01 1.370525418334389e-01
-6.904579575018310e-02 1.801819773918936e-01 1.562389361098441e-01
-5.658164268434973e-02 1.317536929169654e-01 1.212224732198394e-01
-1.335204841159476e-02 1.904004710309776e-01 1.194061811142403e-01
-4.791432790419603e-02 2.027723580638848e-01 1.523788252611301e-01
-6.252380170421623e-02 1.554673194429360e-01 1.383509673875432e-01
-3.692309508590497e-02 1.527385604738822e-01 1.172947432260798e-01
-4.216827444439830e-02 1.772071610586755e-01 1.344495818943605e-01
1.115036254415069e-02 -4.243268368717601e-02 -6.787112740463730e-03
-1.429771291678872e-03 -2.162808269637484e-02 3.674219477548091e-02
5.311420715501614e-03 -2.138902232760453e-02 3.519359865823635e-03
1.788509077208444e-02 -4.214275794720534e-02 -3.963718358345902e-02
4.876651469938098e-03 -3.194638122588755e-02 1.491721305399007e-02
3.177085627149578e-03 -3.192092047902007e-02 2.347722878302427e-02
1.158709751814557e-02 -3.172317811141112e-02 -1.805409597797958e-02
1.570396683344755e-02 -5.262940421649742e-02 -1.987729836882002e-02
9.445449228175251e-03 -4.218245252811670e-02 1.767506338540059e-03
1.788509077208444e-02 -4.214275794720534e-02 -3.963718358345902e-02
5.311420715501614e-03 -2.138902232760453e-02 3.519359865823635e-03
-6.577750208980326e-04 2.888633759724302e-02 -1.263873714673958e-02
1.215741653305691e-02 7.791306693544442e-03 -5.573926278161645e-02
1.158709751814557e-02 -3.172317811141112e-02 -1.805409597797958e-02
3.722969425269618e-03 3.798168658304624e-03 -1.144036304048957e-02
5.727440353949342e-03 1.823980620124099e-02 -3.416147682481796e-02
1.641606153802422e-02 -1.711568004004205e-02 -5.449169561658085e-02
1.004704781741772e-02 -6.695459076495158e-03 -3.293636808651712e-02
1.215741653305691e-02 7.791306693544442e-03 -5.573926278161645e-02
-6.577750208980326e-04 2.888633759724302e-02 -1.263873714673958e-02
-7.398967028078518e-03 2.864727722847271e-02 2.058409776291770e-02
5.422688305123158e-03 7.501380953573777e-03 -2.288919193862116e-02
5.727440353949342e-03 1.823980620124099e-02 -3.416147682481796e-02
-5.264631939726483e-03 3.917917537988824e-02 6.262288457170584e-04
-9.830056942581322e-04 1.801660308676456e-02 -1.190167792848307e-03
7.603812243760055e-03 1.798802722286585e-02 -4.264907715326016e-02
1.158642595712189e-03 2.847587750347014e-02 -2.101177010936794e-02
5.422688305123158e-03 7.501380953573777e-03 -2.288919193862116e-02
-7.398967028078518e-03 2.864727722847271e-02 2.058409776291770e-02
-1.429771291678872e-03 -2.162808269637484e-02 3.674219477548091e-02
1.115036254415069e-02 -4.243268368717601e-02 -6.787112740463730e-03
-9.830056942581322e-04 1.801660308676456e-02 -1.190167792848307e-03
-5.810515737846522e-03 3.460086242563554e-03 3.554382066923045e-02
4.876651469938098e-03 -3.194638122588755e-02 1.491721305399007e-02
6.891717539183384e-03 -1.752569695358974e-02 -8.034679905499331e-03
5.570440064697202e-04 -7.011115948151403e-03 1.369210431568924e-02
-1.429771291678872e-03 -2.162808269637484e-02 3.674219477548091e-02
-1.437988724572636e-02 -1.312596032340352e-03 8.134402242069916e-02
-7.412967927613590e-03 -7.892857834932432e-04 4.722851505064396e-02
5.311420715501614e-03 -2.138902232760453e-02 3.519359865823635e-03
-7.828780731579554e-03 -1.143193868698389e-02 5.883553118499396e-02
-9.628232076528631e-03 -1.176898495536727e-02 6.768041994876572e-02
-1.001986555476675e-03 -1.109342777401978e-02 2.523108959107967e-02
3.177085627149578e-03 -3.192092047902007e-02 2.347722878302427e-02
-3.160987486475086e-03 -2.179848121833894e-02 4.539936160940039e-02
5.311420715501614e-03 -2.138902232760453e-02 3.519359865823635e-03
-7.412967927613590e-03 -7.892857834932432e-04 4.722851505064396e-02
-1.353635752826077e-02 5.096200881944091e-02 3.084010326785025e-02
-6.577750208980326e-04 2.888633759724302e-02 -1.263873714673958e-02
-1.001986555476675e-03 -1.109342777401978e-02 2.523108959107967e-02
-9.031766493176496e-03 2.519474261917454e-02 3.196875623928852e-02
-7.058746985368680e-03 3.977790501129941e-02 8.978356570563228e-03
3.722969425269618e-03 3.798168658304624e-03 -1.144036304048957e-02
-2.616491402786858e-03 1.441234652422008e-02 1.014501534873391e-02
-6.577750208980326e-04 2.888633759724302e-02 -1.263873714673958e-02
-1.353635752826077e-02 5.096200881944091e-02 3.084010326785025e-02
-2.050327684637354e-02 5.043869857059380e-02 6.495561063790545e-02
-7.398967028078518e-03 2.864727722847271e-02 2.058409776291770e-02
-7.058746985368680e-03 3.977790501129941e-02 8.978356570563228e-03
-1.828801269745850e-02 6.141839774246782e-02 4.450370573978368e-02
-1.388554116147156e-02 3.943939409833530e-02 4.258279816447752e-02
-5.264631939726483e-03 3.917917537988824e-02 6.262288457170584e-04
-1.172654023047293e-02 5.014444754265446e-02 2.241452614615680e-02
-7.398967028078518e-03 2.864727722847271e-02 2.058409776291770e-02
-2.050327684637354e-02 5.043869857059380e-02 6.495561063790545e-02
-1.437988724572636e-02 -1.312596032340352e-03 8.134402242069916e-02
-1.429771291678872e-03 -2.162808269637484e-02 3.674219477548091e-02
-1.388554116147156e-02 3.943939409833530e-02 4.258279816447752e-02
-1.888447828081063e-02 2.445467016792602e-02 8.021536944926089e-02
-7.828780731579554e-03 -1.143193868698367e-02 5.883553118499396e-02
-5.810515737846522e-03 3.460086242563554e-03 3.554382066923045e-02
-1.227103631416138e-02 1.393361980009544e-02 5.766887240682284e-02
-1.437988724572636e-02 -1.312596032340352e-03 8.134402242069916e-02
-2.817459455438365e-02 1.887472542976831e-02 1.281891194492788e-01
-2.076602606495170e-02 2.003436857672036e-02 9.266775324636845e-02
-7.412967927613590e-03 -7.892857834932432e-04 4.722851505064396e-02
-2.114223432135853e-02 8.774818876412294e-03 1.044135610629620e-01
-2.318607538065764e-02 8.195014740412176e-03 1.139004679170599e-01
-1.398116610916555e-02 9.570768097351801e-03 6.965857921666929e-02
-9.628232076528631e-03 -1.176898495536727e-02 6.768041994876572e-02
-1.628370858807027e-02 -1.786440128898281e-03 9.046593857214891e-02
-7.412967927613590e-03 -7.892857834932432e-04 4.722851505064396e-02
-2.076602606495170e-02 2.003436857672036e-02 9.266775324636845e-02
-2.696686083073030e-02 7.440019956653443e-02 7.590330183949323e-02
-1.353635752826077e-02 5.096200881944091e-02 3.084010326785025e-02
-1.398116610916555e-02 9.570768097351801e-03 6.965857921666929e-02
-2.233207867479470e-02 4.745745403111767e-02 7.692881172529686e-02
-2.015185554709698e-02 6.248662895421564e-02 5.309770944368220e-02
-9.031766493176496e-03 2.519474261917454e-02 3.196875623928852e-02
-1.558340504084688e-02 3.619354500692040e-02 5.418015190979286e-02
-1.353635752826077e-02 5.096200881944091e-02 3.084010326785025e-02
-2.696686083073030e-02 7.440019956653443e-02 7.590330183949323e-02
-3.437542932016213e-02 7.324055641958238e-02 1.114246680424036e-01
-2.050327684637354e-02 5.043869857059380e-02 6.495561063790545e-02
-2.015185554709698e-02 6.248662895421564e-02 5.309770944368220e-02
-3.195538000445630e-02 8.507991025589057e-02 9.019195337171215e-02
-2.731292375928995e-02 6.169067973327613e-02 8.785269128997486e-02
-1.828801269745850e-02 6.141839774246782e-02 4.450370573978368e-02
-2.501038128038524e-02 7.304788795952621e-02 6.704533193449524e-02
-2.050327684637354e-02 5.043869857059380e-02 6.495561063790545e-02
-3.437542932016213e-02 7.324055641958238e-02 1.114246680424036e-01
-2.817459455438365e-02 1.887472542976831e-02 1.281891194492788e-01
-1.437988724572636e-02 -1.312596032340352e-03 8.134402242069916e-02
-2.731292375928995e-02 6.169067973327613e-02 8.785269128997486e-02
-3.280937671031925e-02 4.581747096518507e-02 1.271636095634752e-01
-2.114223432135853e-02 8.774818876412294e-03 1.044135610629620e-01
-1.888447828081063e-02 2.445467016792602e-02 8.021536944926089e-02
-2.571068482760874e-02 3.506790282370753e-02 1.033311185968513e-01
-2.817459455438365e-02 1.887472542976831e-02 1.281891194492788e-01
-4.328255581492912e-02 3.928763382489842e-02 1.784334836569368e-01
-3.522254777800604e-02 4.146421716830462e-02 1.410070152961884e-01
-2.076602606495170e-02 2.003436857672036e-02 9.266775324636845e-02
-3.553536411443159e-02 2.903112294549337e-02 1.528147335299601e-01
-3.796409626625374e-02 2.833768460266617e-02 1.632898098006601e-01
-2.782679907848318e-02 3.064943952104149e-02 1.164020458674284e-01
-2.318607538065764e-02 8.195014740412176e-03 1.139004679170599e-01