<?xml version="1.0" ?> 
<!-- 
# vtk DataFile Version 3.0
-->
<VTKFile type="UnstructuredGrid" version="0.1" compressor="vtkZLibDataCompressor" byte_order="LittleEndian">
  <UnstructuredGrid>
    <FieldData>
      <DataArray type="Float64" Name="TIME" NumberOfTuples="1" format="ascii">
5.000000100000001e-01 
      </DataArray>
    </FieldData>

    <Piece NumberOfPoints="1080" NumberOfCells="120" >
      <Points>
        <DataArray type="Float64" NumberOfComponents="3" format="ascii">
-1.500000000000000e+00 1.250000000000000e-01 0.000000000000000e+00
-1.300000000000000e+00 1.250000000000000e-01 0.000000000000000e+00
-1.300000000000000e+00 7.654042494670958e-18 1.250000000000000e-01
-1.500000000000000e+00 7.654042494670958e-18 1.250000000000000e-01
-1.400000000000000e+00 1.250000000000000e-01 0.000000000000000e+00
-1.300000000000000e+00 8.838834764831845e-02 8.838834764831843e-02
-1.400000000000000e+00 7.654042494670958e-18 1.250000000000000e-01
-1.500000000000000e+00 8.838834764831845e-02 8.838834764831843e-02
-1.400000000000000e+00 8.838834764831845e-02 8.838834764831843e-02
-1.500000000000000e+00 7.654042494670958e-18 1.250000000000000e-01
-1.300000000000000e+00 7.654042494670958e-18 1.250000000000000e-01
-1.300000000000000e+00 -1.250000000000000e-01 1.530808498934192e-17
-1.500000000000000e+00 -1.250000000000000e-01 1.530808498934192e-17
-1.400000000000000e+00 7.654042494670958e-18 1.250000000000000e-01
-1.300000000000000e+00 -8.838834764831843e-02 8.838834764831845e-02
-1.400000000000000e+00 -1.250000000000000e-01 1.530808498934192e-17
-1.500000000000000e+00 -8.838834764831843e-02 8.838834764831845e-02
-1.400000000000000e+00 -8.838834764831843e-02 8.838834764831845e-02
-1.500000000000000e+00 -1.250000000000000e-01 1.530808498934192e-17
-1.300000000000000e+00 -1.250000000000000e-01 1.530808498934192e-17
-1.300000000000000e+00 -2.296212748401287e-17 -1.250000000000000e-01
-1.500000000000000e+00 -2.296212748401287e-17 -1.250000000000000e-01
-1.400000000000000e+00 -1.250000000000000e-01 1.530808498934192e-17
-1.300000000000000e+00 -8.838834764831846e-02 -8.838834764831843e-02
-1.400000000000000e+00 -2.296212748401287e-17 -1.250000000000000e-01
-1.500000000000000e+00 -8.838834764831846e-02 -8.838834764831843e-02
-1.400000000000000e+00 -8.838834764831846e-02 -8.838834764831843e-02
-1.500000000000000e+00 -2.296212748401287e-17 -1.250000000000000e-01
-1.300000000000000e+00 -2.296212748401287e-17 -1.250000000000000e-01
-1.300000000000000e+00 1.250000000000000e-01 -3.061616997868383e-17
-1.500000000000000e+00 1.250000000000000e-01 -3.061616997868383e-17
-1.400000000000000e+00 -2.296212748401287e-17 -1.250000000000000e-01
-1.300000000000000e+00 8.838834764831842e-02 -8.838834764831846e-02
-1.400000000000000e+00 1.250000000000000e-01 -3.061616997868383e-17
-1.500000000000000e+00 8.838834764831842e-02 -8.838834764831846e-02
-1.400000000000000e+00 8.838834764831842e-02 -8.838834764831846e-02
-1.300000000000000e+00 1.250000000000000e-01 0.000000000000000e+00
-1.100000000000000e+00 1.250000000000000e-01 0.000000000000000e+00
-1.100000000000000e+00 7.654042494670958e-18 1.250000000000000e-01
-1.300000000000000e+00 7.654042494670958e-18 1.250000000000000e-01
-1.200000000000000e+00 1.250000000000000e-01 0.000000000000000e+00
-1.100000000000000e+00 8.838834764831845e-02 8.838834764831843e-02
-1.200000000000000e+00 7.654042494670958e-18 1.250000000000000e-01
-1.300000000000000e+00 8.838834764831845e-02 8.838834764831843e-02
-1.200000000000000e+00 8.838834764831845e-02 8.838834764831843e-02
-1.300000000000000e+00 7.654042494670958e-18 1.250000000000000e-01
-1.100000000000000e+00 7.654042494670958e-18 1.250000000000000e-01
-1.100000000000000e+00 -1.250000000000000e-01 1.530808498934192e-17
-1.300000000000000e+00 -1.250000000000000e-01 1.530808498934192e-17
-1.200000000000000e+00 7.654042494670958e-18 1.250000000000000e-01
-1.100000000000000e+00 -8.838834764831843e-02 8.838834764831845e-02
-1.200000000000000e+00 -1.250000000000000e-01 1.530808498934192e-17
-1.300000000000000e+00 -8.838834764831843e-02 8.838834764831845e-02
-1.200000000000000e+00 -8.838834764831843e-02 8.838834764831845e-02
-1.300000000000000e+00 -1.250000000000000e-01 1.530808498934192e-17
-1.100000000000000e+00 -1.250000000000000e-01 1.530808498934192e-17
-1.100000000000000e+00 -2.296212748401287e-17 -1.250000000000000e-01
-1.300000000000000e+00 -2.296212748401287e-17 -1.250000000000000e-01
-1.200000000000000e+00 -1.250000000000000e-01 1.530808498934192e-17
-1.100000000000000e+00 -8.838834764831846e-02 -8.838834764831843e-02
-1.200000000000000e+00 -2.296212748401287e-17 -1.250000000000000e-01
-1.300000000000000e+00 -8.838834764831846e-02 -8.838834764831843e-02
-1.200000000000000e+00 -8.838834764831846e-02 -8.838834764831843e-02
-1.300000000000000e+00 -2.296212748401287e-17 -1.250000000000000e-01
-1.100000000000000e+00 -2.296212748401287e-17 -1.250000000000000e-01
-1.100000000000000e+00 1.250000000000000e-01 -3.061616997868383e-17
-1.300000000000000e+00 1.250000000000000e-01 -3.061616997868383e-17
-1.200000000000000e+00 -2.296212748401287e-17 -1.250000000000000e-01
-1.100000000000000e+00 8.838834764831842e-02 -8.838834764831846e-02
-1.200000000000000e+00 1.250000000000000e-01 -3.061616997868383e-17
-1.300000000000000e+00 8.838834764831842e-02 -8.838834764831846e-02
-1.200000000000000e+00 8.838834764831842e-02 -8.838834764831846e-02
-1.100000000000000e+00 1.250000000000000e-01 0.000000000000000e+00
-9.000000000000000e-01 1.250000000000000e-01 0.000000000000000e+00
-9.000000000000000e-01 7.654042494670958e-18 1.250000000000000e-01
-1.100000000000000e+00 7.654042494670958e-18 1.250000000000000e-01
-1.000000000000000e+00 1.250000000000000e-01 0.000000000000000e+00
-9.000000000000000e-01 8.838834764831845e-02 8.838834764831843e-02
-1.000000000000000e+00 7.654042494670958e-18 1.250000000000000e-01
-1.100000000000000e+00 8.838834764831845e-02 8.838834764831843e-02
-1.000000000000000e+00 8.838834764831845e-02 8.838834764831843e-02
-1.100000000000000e+00 7.654042494670958e-18 1.250000000000000e-01
-9.000000000000000e-01 7.654042494670958e-18 1.250000000000000e-01
-9.000000000000000e-01 -1.250000000000000e-01 1.530808498934192e-17
-1.100000000000000e+00 -1.250000000000000e-01 1.530808498934192e-17
-1.000000000000000e+00 7.654042494670958e-18 1.250000000000000e-01
-9.000000000000000e-01 -8.838834764831843e-02 8.838834764831845e-02
-1.000000000000000e+00 -1.250000000000000e-01 1.530808498934192e-17
-1.100000000000000e+00 -8.838834764831843e-02 8.838834764831845e-02
-1.000000000000000e+00 -8.838834764831843e-02 8.838834764831845e-02
-1.100000000000000e+00 -1.250000000000000e-01 1.530808498934192e-17
-9.000000000000000e-01 -1.250000000000000e-01 1.530808498934192e-17
-9.000000000000000e-01 -2.296212748401287e-17 -1.250000000000000e-01
-1.100000000000000e+00 -2.296212748401287e-17 -1.250000000000000e-01
-1.000000000000000e+00 -1.250000000000000e-01 1.530808498934192e-17
-9.000000000000000e-01 -8.838834764831846e-02 -8.838834764831843e-02
-1.000000000000000e+00 -2.296212748401287e-17 -1.250000000000000e-01
-1.100000000000000e+00 -8.838834764831846e-02 -8.838834764831843e-02
-1.000000000000000e+00 -8.838834764831846e-02 -8.838834764831843e-02
-1.100000000000000e+00 -2.296212748401287e-17 -1.250000000000000e-01
-9.000000000000000e-01 -2.296212748401287e-17 -1.250000000000000e-01
-9.000000000000000e-01 1.250000000000000e-01 -3.061616997868383e-17
-1.100000000000000e+00 1.250000000000000e-01 -3.061616997868383e-17
-1.000000000000000e+00 -2.296212748401287e-17 -1.250000000000000e-01
-9.000000000000000e-01 8.838834764831842e-02 -8.838834764831846e-02
-1.000000000000000e+00 1.250000000000000e-01 -3.061616997868383e-17
-1.100000000000000e+00 8.838834764831842e-02 -8.838834764831846e-02
-1.000000000000000e+00 8.838834764831842e-02 -8.838834764831846e-02
-9.000000000000000e-01 1.250000000000000e-01 0.000000000000000e+00
-7.000000000000000e-01 1.250000000000000e-01 0.000000000000000e+00
-7.000000000000000e-01 7.654042494670958e-18 1.250000000000000e-01
-9.000000000000000e-01 7.654042494670958e-18 1.250000000000000e-01
-8.000000000000000e-01 1.250000000000000e-01 0.000000000000000e+00
-7.000000000000000e-01 8.838834764831845e-02 8.838834764831843e-02
-8.000000000000000e-01 7.654042494670958e-18 1.250000000000000e-01
-9.000000000000000e-01 8.838834764831845e-02 8.838834764831843e-02
-8.000000000000000e-01 8.838834764831845e-02 8.838834764831843e-02
-9.000000000000000e-01 7.654042494670958e-18 1.250000000000000e-01
-7.000000000000000e-01 7.654042494670958e-18 1.250000000000000e-01
-7.000000000000000e-01 -1.250000000000000e-01 1.530808498934192e-17
-9.000000000000000e-01 -1.250000000000000e-01 1.530808498934192e-17
-8.000000000000000e-01 7.654042494670958e-18 1.250000000000000e-01
-7.000000000000000e-01 -8.838834764831843e-02 8.838834764831845e-02
-8.000000000000000e-01 -1.250000000000000e-01 1.530808498934192e-17
-9.000000000000000e-01 -8.838834764831843e-02 8.838834764831845e-02
-8.000000000000000e-01 -8.838834764831843e-02 8.838834764831845e-02
-9.000000000000000e-01 -1.250000000000000e-01 1.530808498934192e-17
-7.000000000000000e-01 -1.250000000000000e-01 1.530808498934192e-17
-7.000000000000000e-01 -2.296212748401287e-17 -1.250000000000000e-01
-9.000000000000000e-01 -2.296212748401287e-17 -1.250000000000000e-01
-8.000000000000000e-01 -1.250000000000000e-01 1.530808498934192e-17
-7.000000000000000e-01 -8.838834764831846e-02 -8.838834764831843e-02
-8.000000000000000e-01 -2.296212748401287e-17 -1.250000000000000e-01
-9.000000000000000e-01 -8.838834764831846e-02 -8.838834764831843e-02
-8.000000000000000e-01 -8.838834764831846e-02 -8.838834764831843e-02
-9.000000000000000e-01 -2.296212748401287e-17 -1.250000000000000e-01
-7.000000000000000e-01 -2.296212748401287e-17 -1.250000000000000e-01
-7.000000000000000e-01 1.250000000000000e-01 -3.061616997868383e-17
-9.000000000000000e-01 1.250000000000000e-01 -3.061616997868383e-17
-8.000000000000000e-01 -2.296212748401287e-17 -1.250000000000000e-01
[...]
  <PointData>
        <DataArray type="Float64" Name="displacement" NumberOfComponents="3" format="ascii">
-7.877019605576141e-02 1.929198770818045e-01 1.696774367419264e-01
-9.621414197882006e-02 2.498965181692175e-01 2.118542206402416e-01
-6.966837111919433e-02 2.281667704928239e-01 1.818052774868618e-01
-5.543619622764595e-02 1.716870792082464e-01 1.412253174959471e-01
-8.718652314686937e-02 2.207280191093041e-01 1.902747199096159e-01
-9.554837560359708e-02 2.301807626775623e-01 2.007943474932634e-01
-6.225559953946469e-02 1.992438452919281e-01 1.610392011598296e-01
-7.866654645744942e-02 1.742509964592621e-01 1.593721539589608e-01
-8.681675046200477e-02 2.015406182577921e-01 1.795989324926339e-01
-5.543619622764595e-02 1.716870792082464e-01 1.412253174959471e-01
-6.966837111919433e-02 2.281667704928239e-01 1.818052774868618e-01
-8.795815511108085e-03 2.709026075463005e-01 1.626625028901159e-01
3.965980898432697e-04 2.105679002013078e-01 1.222941322514984e-01
-6.225559953946469e-02 1.992438452919281e-01 1.610392011598296e-01
-3.373428415829838e-02 2.450343109223084e-01 1.660105502939349e-01
-3.852446105571339e-03 2.400214282104567e-01 1.420056768332625e-01
-2.268716947229277e-02 1.867300332815999e-01 1.258670980387522e-01
-2.789065948218061e-02 2.151831186654234e-01 1.454675648119589e-01
3.965980898432697e-04 2.105679002013078e-01 1.222941322514984e-01
-8.795815511108085e-03 2.709026075463005e-01 1.626625028901159e-01
-3.534158637073381e-02 2.926323552226942e-01 1.927114460434957e-01
-2.293740173827219e-02 2.318006980748659e-01 1.507462514974776e-01
-3.852446105571339e-03 2.400214282104567e-01 1.420056768332625e-01
-9.461581886331061e-03 2.906183630379557e-01 1.737223760370942e-01
-2.878336971297601e-02 2.615056020278327e-01 1.712411955830488e-01
2.929484915312752e-04 2.292367808238502e-01 1.325994150344640e-01
-4.222218790435939e-03 2.592088290619687e-01 1.526814642502445e-01
-2.293740173827219e-02 2.318006980748659e-01 1.507462514974776e-01
-3.534158637073381e-02 2.926323552226942e-01 1.927114460434957e-01
-9.621414197882006e-02 2.498965181692175e-01 2.118542206402416e-01
-7.877019605576141e-02 1.929198770818045e-01 1.696774367419264e-01
-2.878336971297601e-02 2.615056020278327e-01 1.712411955830488e-01
-7.127567333162976e-02 2.757648147932096e-01 2.085061732364227e-01
-8.718652314686937e-02 2.207280191093042e-01 1.902747199096159e-01
-5.568642849362537e-02 2.167577440015123e-01 1.661044709546726e-01
-6.314830977026009e-02 2.455663286543375e-01 1.868128319309196e-01
-9.621414197882006e-02 2.498965181692175e-01 2.118542206402416e-01
-1.161343134687738e-01 3.121514579619376e-01 2.578660337409265e-01
-8.630517123259041e-02 2.899499527702671e-01 2.260966035276664e-01
-6.966837111919433e-02 2.281667704928239e-01 1.818052774868618e-01
-1.058608137707562e-01 2.803846042776270e-01 2.343924905728504e-01
-1.147866654950200e-01 2.913526797579717e-01 2.459965687051660e-01
-7.768228492186280e-02 2.584155743225446e-01 2.034992105559322e-01
-9.554837560359708e-02 2.301807626775623e-01 2.007943474932634e-01
-1.048691035470550e-01 2.601314577195230e-01 2.229347885977761e-01
-6.966837111919433e-02 2.281667704928239e-01 1.818052774868618e-01
-8.630517123259041e-02 2.899499527702671e-01 2.260966035276664e-01
-2.079827152312230e-02 3.367761626730480e-01 2.067092611728407e-01
-8.795815511108085e-03 2.709026075463005e-01 1.626625028901159e-01
-7.768228492186280e-02 2.584155743225446e-01 2.034992105559322e-01
-4.737390374376482e-02 3.087649754439142e-01 2.098232679186546e-01
-1.444169895114933e-02 3.031684864554136e-01 1.842389139566054e-01
-3.373428415829838e-02 2.450343109223084e-01 1.660105502939349e-01
-4.022602752803950e-02 2.762420953091911e-01 1.874708544716702e-01
-8.795815511108085e-03 2.709026075463005e-01 1.626625028901159e-01
-2.079827152312230e-02 3.367761626730480e-01 2.067092611728407e-01
-5.062741375930568e-02 3.589776678647184e-01 2.384786913861009e-01
-3.534158637073381e-02 2.926323552226942e-01 1.927114460434957e-01
-1.444169895114933e-02 3.031684864554136e-01 1.842389139566054e-01
-2.214591949687605e-02 3.575749408770138e-01 2.185787262086012e-01
-4.262022780004271e-02 3.251375164104960e-01 2.151321939735236e-01
-9.461581886331061e-03 2.906183630379557e-01 1.737223760370942e-01
-1.543340917485048e-02 3.234216330135177e-01 1.956966159316797e-01
-3.534158637073381e-02 2.926323552226942e-01 1.927114460434957e-01
-5.062741375930568e-02 3.589776678647184e-01 2.384786913861009e-01
-1.161343134687738e-01 3.121514579619376e-01 2.578660337409266e-01
-9.621414197882006e-02 2.498965181692175e-01 2.118542206402416e-01
-4.262022780004271e-02 3.251375164104960e-01 2.151321939735236e-01
-8.955868124813127e-02 3.401626451910713e-01 2.547520269951127e-01
-1.058608137707562e-01 2.803846042776270e-01 2.343924905728504e-01
-7.127567333162976e-02 2.757648147932096e-01 2.085061732364227e-01
-8.007648519386601e-02 3.073109954238495e-01 2.311605500577856e-01
-1.161343134687738e-01 3.121514579619376e-01 2.578660337409265e-01
-1.385929415491612e-01 3.793579419549877e-01 3.075247184965385e-01
-1.054094495027357e-01 3.567140964006321e-01 2.739038776386887e-01
-8.630517123259041e-02 2.899499527702671e-01 2.260966035276664e-01
-1.270424258134464e-01 3.451562101109628e-01 2.822513066768463e-01
-1.364434369495563e-01 3.574463491949917e-01 2.947890145528202e-01
-9.554491420010702e-02 3.227295776992116e-01 2.495729986993494e-01
-1.147866654950200e-01 2.913526797579717e-01 2.459965687051660e-01
-1.253088376631979e-01 3.238043530077948e-01 2.699559240891907e-01
-8.630517123259041e-02 2.899499527702671e-01 2.260966035276664e-01
-1.054094495027357e-01 3.567140964006321e-01 2.739038776386887e-01
-3.567613927085389e-02 4.078455461877820e-01 2.542294060358666e-01
-2.079827152312230e-02 3.367761626730480e-01 2.067092611728407e-01
-9.554491420010702e-02 3.227295776992116e-01 2.495729986993494e-01
-6.367026816053023e-02 3.775901273277592e-01 2.571035377064233e-01
-2.787369852997812e-02 3.716827835730468e-01 2.300479431800395e-01
-4.737390374376482e-02 3.087649754439142e-01 2.098232679186546e-01
-5.518595811941807e-02 3.425614729844775e-01 2.330425717598524e-01
-2.079827152312230e-02 3.367761626730480e-01 2.067092611728407e-01
-3.567613927085389e-02 4.078455461877820e-01 2.542294060358666e-01
-6.885963131727946e-02 4.304893917421375e-01 2.878502468937164e-01
-5.062741375930568e-02 3.589776678647184e-01 2.384786913861009e-01
-2.787369852997812e-02 3.716827835730468e-01 2.300479431800395e-01
-3.782564387045873e-02 4.297571389477779e-01 2.669651099795849e-01
-5.937121014331748e-02 3.941094159847980e-01 2.627262511575364e-01
-2.214591949687605e-02 3.575749408770138e-01 2.185787262086012e-01
-2.960728668022661e-02 3.930346406762149e-01 2.423433257676951e-01
-5.062741375930568e-02 3.589776678647184e-01 2.384786913861009e-01
-6.885963131727946e-02 4.304893917421375e-01 2.878502468937164e-01
-1.385929415491612e-01 3.793579419549877e-01 3.075247184965386e-01
-1.161343134687738e-01 3.121514579619376e-01 2.578660337409266e-01
-5.937121014331748e-02 3.941094159847980e-01 2.627262511575364e-01
-1.105988126594849e-01 4.096133608150105e-01 3.046505868259819e-01
-1.270424258134464e-01 3.451562101109628e-01 2.822513066768463e-01
-8.955868124813127e-02 3.401626451910713e-01 2.547520269951127e-01
-9.973016622400643e-02 3.742775206995321e-01 2.792566780970334e-01
-1.385929415491612e-01 3.793579419549877e-01 3.075247184965385e-01
-1.636523544489453e-01 4.511884220885871e-01 3.606413584757874e-01
-1.270448844323184e-01 4.281362797967422e-01 3.250307107599217e-01
-1.054094495027357e-01 3.567140964006321e-01 2.739038776386887e-01
-1.507936537765362e-01 4.147156851684936e-01 3.336626309565048e-01
-1.605813632842391e-01 4.281405342065945e-01 3.469806587249727e-01
-1.159067621512326e-01 3.918631312983278e-01 2.990646613916342e-01
-1.364434369495563e-01 3.574463491949917e-01 2.947890145528202e-01
-1.481983168014690e-01 3.922384874203714e-01 3.204719236155070e-01
-1.054094495027357e-01 3.567140964006321e-01 2.739038776386887e-01
-1.270448844323184e-01 4.281362797967422e-01 3.250307107599217e-01
-5.349469087353464e-02 4.837685322515382e-01 3.050186952992355e-01
-3.567613927085389e-02 4.078455461877820e-01 2.542294060358666e-01
-1.159067621512326e-01 3.918631312983278e-01 2.990646613916342e-01
-8.268813237039985e-02 4.511781510346219e-01 3.076494964051776e-01
-4.421375068865574e-02 4.452216971054289e-01 2.792281431574149e-01
-6.367026816053023e-02 3.775901273277592e-01 2.571035377064233e-01
-7.283494458982365e-02 4.138094953279362e-01 2.819809281623541e-01
-3.567613927085389e-02 4.078455461877820e-01 2.542294060358666e-01
-5.349469087353464e-02 4.837685322515382e-01 3.050186952992355e-01
-9.010216089016154e-02 5.068206745433831e-01 3.406293430151012e-01
-6.885963131727946e-02 4.304893917421375e-01 2.878502468937164e-01
-4.421375068865574e-02 4.452216971054289e-01 2.792281431574149e-01
-5.656568203824086e-02 5.068164201335309e-01 3.186793950500502e-01
-7.910064231395930e-02 4.680742509755946e-01 3.138261127222854e-01
-3.782564387045873e-02 4.297571389477779e-01 2.669651099795849e-01
-4.680908766372294e-02 4.676988948535511e-01 2.924188504984128e-01
-6.885963131727946e-02 4.304893917421375e-01 2.878502468937164e-01
-9.010216089016154e-02 5.068206745433831e-01 3.406293430151012e-01
-1.636523544489453e-01 4.511884220885872e-01 3.606413584757874e-01
-1.385929415491612e-01 3.793579419549877e-01 3.075247184965386e-01
-7.910064231395930e-02 4.680742509755946e-01 3.138261127222854e-01
-1.344589129520800e-01 4.837788033055034e-01 3.580105573698453e-01
-1.507936537765362e-01 4.147156851684936e-01 3.336626309565048e-01
-1.105988126594849e-01 4.096133608150105e-01 3.046505868259819e-01
-1.221724598753683e-01 4.461278869459862e-01 3.309098459515656e-01
-1.636523544489453e-01 4.511884220885871e-01 3.606413584757874e-01
-1.913748632004393e-01 5.273145617781358e-01 4.170262795122550e-01
-1.512759120908874e-01 5.038931821557062e-01 3.792797504511719e-01
-1.270448844323184e-01 4.281362797967422e-01 3.250307107599217e-01
-1.771768310139683e-01 4.887350860425302e-01 3.884371681159123e-01
-1.872636413368978e-01 5.031131581513664e-01 4.023792578980602e-01
-1.388318939961981e-01 4.654931142657979e-01 3.517773266444644e-01
-1.605813632842391e-01 4.281405342065945e-01 3.469806587249727e-01
-1.736004913539207e-01 4.651122037190484e-01 3.742911514858404e-01
-1.270448844323184e-01 4.281362797967422e-01 3.250307107599217e-01
-1.512759120908874e-01 5.038931821557062e-01 3.792797504511719e-01
-7.431921564704513e-02 5.642036835501718e-01 3.588736445181167e-01
-5.349469087353464e-02 4.837685322515382e-01 3.050186952992355e-01
-1.388318939961981e-01 4.654931142657979e-01 3.517773266444644e-01
-1.044927991757103e-01 5.291977063083895e-01 3.612591353498389e-01
-6.352712242143443e-02 5.234433965615047e-01 3.315756505733968e-01
-8.268813237039985e-02 4.511781510346219e-01 3.076494964051776e-01
-9.323801172826496e-02 4.896546854505437e-01 3.340839868429699e-01
-5.349469087353464e-02 4.837685322515382e-01 3.050186952992355e-01
-7.431921564704513e-02 5.642036835501718e-01 3.588736445181167e-01
-1.144181667565969e-01 5.876250631726014e-01 3.966201735791998e-01
-9.010216089016154e-02 5.068206745433831e-01 3.406293430151012e-01
-6.352712242143443e-02 5.234433965615047e-01 3.315756505733968e-01
-7.843043751058665e-02 5.884050871769412e-01 3.735206661323114e-01
-1.018720594392046e-01 5.466853683382371e-01 3.682354920448446e-01
-5.656568203824086e-02 5.068164201335309e-01 3.186793950500502e-01
-6.710346208148199e-02 5.470662788849865e-01 3.457216672034686e-01
-9.010216089016154e-02 5.068206745433831e-01 3.406293430151012e-01
-1.144181667565969e-01 5.876250631726014e-01 3.966201735791998e-01
-1.913748632004393e-01 5.273145617781358e-01 4.170262795122550e-01
-1.636523544489453e-01 4.511884220885872e-01 3.606413584757874e-01
-1.018720594392046e-01 5.466853683382371e-01 3.682354920448446e-01
-1.612012796717741e-01 5.623205390199183e-01 4.146407886805328e-01
-1.771768310139683e-01 4.887350860425302e-01 3.884371681159123e-01
-1.344589129520800e-01 4.837788033055034e-01 3.580105573698453e-01
-1.474659417071378e-01 5.225237971534914e-01 3.859288318463391e-01
-1.913748632004393e-01 5.273145617781358e-01 4.170262795122550e-01
-2.213508176071289e-01 6.073908186333913e-01 4.763426084049660e-01
-1.779322562282966e-01 5.836093670580300e-01 4.363655946788024e-01
-1.512759120908874e-01 5.038931821557062e-01 3.792797504511719e-01
-2.060698445808570e-01 5.669166151538280e-01 4.463566490938474e-01
-2.161248940077390e-01 5.820727915448682e-01 4.606888303565786e-01
-1.643129385054548e-01 5.433063549571610e-01 4.075039146296088e-01
-1.872636413368978e-01 5.031131581513665e-01 4.023792578980602e-01
-2.014135585386343e-01 5.421526912774495e-01 4.312094833781479e-01
-1.512759120908874e-01 5.038931821557062e-01 3.792797504511719e-01
-1.779322562282966e-01 5.836093670580300e-01 4.363655946788024e-01
-9.834356774793612e-02 6.484421128711574e-01 4.154356724915129e-01
-7.431921564704513e-02 5.642036835501718e-01 3.588736445181167e-01
-1.643129385054548e-01 5.433063549571610e-01 4.075039146296088e-01
-1.291456334971959e-01 6.111004400768769e-01 4.176211229508816e-01
-8.598538736232469e-02 6.058769463390655e-01 3.868421019554724e-01
-1.044927991757103e-01 5.291977063083895e-01 3.612591353498389e-01
-1.165010245243042e-01 5.697018056558047e-01 3.891263435173565e-01
-7.431921564704513e-02 5.642036835501718e-01 3.588736445181167e-01
-9.834356774793612e-02 6.484421128711574e-01 4.154356724915129e-01
-1.417621291267685e-01 6.722235644465187e-01 4.554126862176764e-01
-1.144181667565970e-01 5.876250631726013e-01 3.966201735791998e-01
-8.598538736232469e-02 6.058769463390655e-01 3.868421019554724e-01
-1.035694913473260e-01 6.737601399596804e-01 4.310894505399002e-01
-1.277422934377268e-01 6.294872065357325e-01 4.256948364197110e-01
-7.843043751058665e-02 5.884050871769412e-01 3.735206661323114e-01
-9.064167340454743e-02 6.306408702154440e-01 4.019892676711719e-01
-1.144181667565970e-01 5.876250631726013e-01 3.966201735791998e-01
-1.417621291267685e-01 6.722235644465187e-01 4.554126862176764e-01
-2.213508176071289e-01 6.073908186333913e-01 4.763426084049660e-01
-1.913748632004393e-01 5.273145617781358e-01 4.170262795122550e-01
-1.277422934377268e-01 6.294872065357325e-01 4.256948364197110e-01
-1.905487518578692e-01 6.447324914276719e-01 4.741571579455973e-01
-2.060698445808570e-01 5.669166151538280e-01 4.463566490938474e-01
-1.612012796717741e-01 5.623205390199183e-01 4.146407886805328e-01
-1.755542074188775e-01 6.030917558370888e-01 4.440724075319633e-01
-2.213508176071289e-01 6.073908186333913e-01 4.763426084049660e-01
-2.536102823343037e-01 6.908267868666486e-01 5.381623856730846e-01
-2.068607156556656e-01 6.667545933225048e-01 4.958785215070131e-01
-1.779322562282966e-01 5.836093670580300e-01 4.363655946788024e-01
-2.372026688795489e-01 6.487049640582707e-01 5.069544429558158e-01
-2.471738371094083e-01 6.644268708425614e-01 5.214749969556838e-01
-1.921196006093024e-01 6.247696535129027e-01 4.658340604328590e-01
-2.161248940077390e-01 5.820727915448682e-01 4.606888303565786e-01
-2.313831510250934e-01 6.228415231681340e-01 4.907873458109897e-01
-1.779322562282966e-01 5.836093670580300e-01 4.363655946788024e-01
-2.068607156556656e-01 6.667545933225048e-01 4.958785215070131e-01
-1.250751844558602e-01 7.361092478138868e-01 4.743700834920230e-01
-9.834356774793612e-02 6.484421128711574e-01 4.154356724915129e-01
-1.921196006093024e-01 6.247696535129027e-01 4.658340604328590e-01
-1.562857977790843e-01 6.964464060471685e-01 4.763670274959538e-01
-1.113785636192788e-01 6.918644417078692e-01 4.446223256384526e-01
-1.291456334971959e-01 6.111004400768769e-01 4.176211229508816e-01
-1.424120729588265e-01 6.533598824866345e-01 4.467118829701667e-01
-9.834356774793612e-02 6.484421128711574e-01 4.154356724915129e-01
-1.250751844558602e-01 7.361092478138868e-01 4.743700834920230e-01
-1.718247511344983e-01 7.601814413580306e-01 5.166539476580946e-01
-1.417621291267685e-01 6.722235644465187e-01 4.554126862176764e-01
-1.113785636192788e-01 6.918644417078692e-01 4.446223256384526e-01
-1.315116296807556e-01 7.625091638379740e-01 4.910574722094238e-01
-1.564616318895254e-01 7.157997522532371e-01 4.857427081614093e-01
-1.035694913473260e-01 6.737601399596804e-01 4.310894505399002e-01
-1.171980814737343e-01 7.177278825980059e-01 4.607894227832787e-01
-1.417621291267685e-01 6.722235644465187e-01 4.554126862176764e-01
-1.718247511344983e-01 7.601814413580306e-01 5.166539476580946e-01
-2.536102823343037e-01 6.908267868666486e-01 5.381623856730846e-01
-2.213508176071289e-01 6.073908186333913e-01 4.763426084049660e-01
-1.564616318895254e-01 7.157997522532371e-01 4.857427081614093e-01
-2.223996690110796e-01 7.304896286333669e-01 5.361654416691539e-01
-2.372026688795489e-01 6.487049640582707e-01 5.069544429558157e-01
-1.905487518578692e-01 6.447324914276719e-01 4.741571579455973e-01
-2.061691595400013e-01 6.872095232795056e-01 5.048648856241017e-01
-2.536102823343037e-01 6.908267868666486e-01 5.381623856730846e-01
-2.880322941104072e-01 7.773641313852891e-01 6.022472619914820e-01
-2.379472648378242e-01 7.530676780211385e-01 5.575719708652183e-01
-2.068607156556656e-01 6.667545933225048e-01 4.958785215070131e-01
-2.705585351906808e-01 7.337239672530781e-01 5.699366165014732e-01
-2.802945220561612e-01 7.499189670536350e-01 5.844971774018943e-01
-2.221413519574615e-01 7.095315109751064e-01 5.264681279403417e-01
-2.471738371094083e-01 6.644268708425614e-01 5.214749969556838e-01
-2.634824596846303e-01 7.067967416541935e-01 5.527216714143373e-01
-2.068607156556656e-01 6.667545933225048e-01 4.958785215070131e-01
-2.379472648378242e-01 7.530676780211385e-01 5.575719708652183e-01
-1.543925763679250e-01 8.269278266939156e-01 5.354212670241301e-01
-1.250751844558602e-01 7.361092478138868e-01 4.743700834920230e-01
-2.221413519574615e-01 7.095315109751064e-01 5.264681279403417e-01
-1.857969714045959e-01 7.849657921070288e-01 5.372440632009416e-01
-1.394182464540865e-01 7.811419013975230e-01 5.046470211299423e-01
-1.562857977790843e-01 6.964464060471685e-01 4.763670274959538e-01
-1.707522722322226e-01 7.403262844375877e-01 5.065549557862017e-01
-1.250751844558602e-01 7.361092478138868e-01 4.743700834920230e-01
-1.543925763679250e-01 8.269278266939156e-01 5.354212670241301e-01
-2.044776056405080e-01 8.512242800580663e-01 5.800965581503938e-01
-1.718247511344983e-01 7.601814413580306e-01 5.166539476580946e-01
-1.394182464540865e-01 7.811419013975230e-01 5.046470211299423e-01
-1.621303484221709e-01 8.543729910255697e-01 5.531713516137178e-01
-1.878354296873059e-01 8.053343576754948e-01 5.481155096910738e-01
-1.315116296807556e-01 7.625091638379740e-01 4.910574722094238e-01
-1.464943219601370e-01 8.080691269964076e-01 5.218619662170783e-01
-1.718247511344983e-01 7.601814413580306e-01 5.166539476580946e-01
-2.044776056405080e-01 8.512242800580663e-01 5.800965581503938e-01
-2.880322941104072e-01 7.773641313852891e-01 6.022472619914820e-01
-2.536102823343037e-01 6.908267868666486e-01 5.381623856730846e-01
-1.878354296873059e-01 8.053343576754948e-01 5.481155096910738e-01
-2.566278990737363e-01 8.193261659721761e-01 6.004244658146705e-01
-2.705585351906808e-01 7.337239672530781e-01 5.699366165014732e-01
-2.223996690110796e-01 7.304896286333669e-01 5.361654416691539e-01
-2.392245094125447e-01 7.745395842130135e-01 5.680286818452137e-01
-2.880322941104072e-01 7.773641313852891e-01 6.022472619914820e-01
-3.244957224329918e-01 8.667436530521098e-01 6.683580335453922e-01
-2.710779557379956e-01 8.422865914289021e-01 6.211984403549384e-01
-2.379472648378242e-01 7.530676780211385e-01 5.575719708652183e-01
-3.060164115682614e-01 8.217148526689996e-01 6.350643948643266e-01
-3.153709368117958e-01 8.382914414395658e-01 6.495135208598681e-01
-2.542642127243318e-01 7.973303146737932e-01 5.891590831991138e-01
-2.802945220561612e-01 7.499189670536350e-01 5.844971774018943e-01