<?xml version="1.0" ?> 
<!-- 
# vtk DataFile Version 3.0
-->
<VTKFile type="UnstructuredGrid" version="0.1" compressor="vtkZLibDataCompressor" byte_order="LittleEndian">
  <UnstructuredGrid>
    <FieldData>
      <DataArray type="Float64" Name="TIME" NumberOfTuples="1" format="ascii">
1.000000000000000e+00 
      </DataArray>
    </FieldData>

    <Piece NumberOfPoints="1080" NumberOfCells="120" >
      <Points>
        <DataArray type="Float64" NumberOfComponents="3" format="ascii">
-1.500000000000000e+00 1.250000000000000e-01 0.000000000000000e+00
-1.300000000000000e+00 1.250000000000000e-01 0.000000000000000e+00
-1.300000000000000e+00 7.654042494670958e-18 1.250000000000000e-01
-1.500000000000000e+00 7.654042494670958e-18 1.250000000000000e-01
-1.400000000000000e+00 1.250000000000000e-01 0.000000000000000e+00
-1.300000000000000e+00 8.838834764831845e-02 8.838834764831843e-02
-1.400000000000000e+00 7.654042494670958e-18 1.250000000000000e-01
-1.500000000000000e+00 8.838834764831845e-02 8.838834764831843e-02
-1.400000000000000e+00 8.838834764831845e-02 8.838834764831843e-02
-1.500000000000000e+00 7.654042494670958e-18 1.250000000000000e-01
-1.300000000000000e+00 7.654042494670958e-18 1.250000000000000e-01
-1.300000000000000e+00 -1.250000000000000e-01 1.530808498934192e-17
-1.500000000000000e+00 -1.250000000000000e-01 1.530808498934192e-17
-1.400000000000000e+00 7.654042494670958e-18 1.250000000000000e-01
-1.300000000000000e+00 -8.838834764831843e-02 8.838834764831845e-02
-1.400000000000000e+00 -1.250000000000000e-01 1.530808498934192e-17
-1.500000000000000e+00 -8.838834764831843e-02 8.838834764831845e-02
-1.400000000000000e+00 -8.838834764831843e-02 8.838834764831845e-02
-1.500000000000000e+00 -1.250000000000000e-01 1.530808498934192e-17
-1.300000000000000e+00 -1.250000000000000e-01 1.530808498934192e-17
-1.300000000000000e+00 -2.296212748401287e-17 -1.250000000000000e-01
-1.500000000000000e+00 -2.296212748401287e-17 -1.250000000000000e-01
-1.400000000000000e+00 -1.250000000000000e-01 1.530808498934192e-17
-1.300000000000000e+00 -8.838834764831846e-02 -8.838834764831843e-02
-1.400000000000000e+00 -2.296212748401287e-17 -1.250000000000000e-01
-1.500000000000000e+00 -8.838834764831846e-02 -8.838834764831843e-02
-1.400000000000000e+00 -8.838834764831846e-02 -8.838834764831843e-02
-1.500000000000000e+00 -2.296212748401287e-17 -1.250000000000000e-01
-1.300000000000000e+00 -2.296212748401287e-17 -1.250000000000000e-01
-1.300000000000000e+00 1.250000000000000e-01 -3.061616997868383e-17
-1.500000000000000e+00 1.250000000000000e-01 -3.061616997868383e-17
-1.400000000000000e+00 -2.296212748401287e-17 -1.250000000000000e-01
-1.300000000000000e+00 8.838834764831842e-02 -8.838834764831846e-02
-1.400000000000000e+00 1.250000000000000e-01 -3.061616997868383e-17
-1.500000000000000e+00 8.838834764831842e-02 -8.838834764831846e-02
-1.400000000000000e+00 8.838834764831842e-02 -8.838834764831846e-02
-1.300000000000000e+00 1.250000000000000e-01 0.000000000000000e+00
-1.100000000000000e+00 1.250000000000000e-01 0.000000000000000e+00
-1.100000000000000e+00 7.654042494670958e-18 1.250000000000000e-01
-1.300000000000000e+00 7.654042494670958e-18 1.250000000000000e-01
-1.200000000000000e+00 1.250000000000000e-01 0.000000000000000e+00
-1.100000000000000e+00 8.838834764831845e-02 8.838834764831843e-02
-1.200000000000000e+00 7.654042494670958e-18 1.250000000000000e-01
-1.300000000000000e+00 8.838834764831845e-02 8.838834764831843e-02
-1.200000000000000e+00 8.838834764831845e-02 8.838834764831843e-02
-1.300000000000000e+00 7.654042494670958e-18 1.250000000000000e-01
-1.100000000000000e+00 7.654042494670958e-18 1.250000000000000e-01
-1.100000000000000e+00 -1.250000000000000e-01 1.530808498934192e-17
-1.300000000000000e+00 -1.250000000000000e-01 1.530808498934192e-17
-1.200000000000000e+00 7.654042494670958e-18 1.250000000000000e-01
-1.100000000000000e+00 -8.838834764831843e-02 8.838834764831845e-02
-1.200000000000000e+00 -1.250000000000000e-01 1.530808498934192e-17
-1.300000000000000e+00 -8.838834764831843e-02 8.838834764831845e-02
-1.200000000000000e+00 -8.838834764831843e-02 8.838834764831845e-02
-1.300000000000000e+00 -1.250000000000000e-01 1.530808498934192e-17
-1.100000000000000e+00 -1.250000000000000e-01 1.530808498934192e-17
-1.100000000000000e+00 -2.296212748401287e-17 -1.250000000000000e-01
-1.300000000000000e+00 -2.296212748401287e-17 -1.250000000000000e-01
-1.200000000000000e+00 -1.250000000000000e-01 1.530808498934192e-17
-1.100000000000000e+00 -8.838834764831846e-02 -8.838834764831843e-02
-1.200000000000000e+00 -2.296212748401287e-17 -1.250000000000000e-01
-1.300000000000000e+00 -8.838834764831846e-02 -8.838834764831843e-02
-1.200000000000000e+00 -8.838834764831846e-02 -8.838834764831843e-02
-1.300000000000000e+00 -2.296212748401287e-17 -1.250000000000000e-01
-1.100000000000000e+00 -2.296212748401287e-17 -1.250000000000000e-01
-1.100000000000000e+00 1.250000000000000e-01 -3.061616997868383e-17
-1.300000000000000e+00 1.250000000000000e-01 -3.061616997868383e-17
-1.200000000000000e+00 -2.296212748401287e-17 -1.250000000000000e-01
-1.100000000000000e+00 8.838834764831842e-02 -8.838834764831846e-02
-1.200000000000000e+00 1.250000000000000e-01 -3.061616997868383e-17
-1.300000000000000e+00 8.838834764831842e-02 -8.838834764831846e-02
-1.200000000000000e+00 8.838834764831842e-02 -8.838834764831846e-02
-1.100000000000000e+00 1.250000000000000e-01 0.000000000000000e+00
-9.000000000000000e-01 1.250000000000000e-01 0.000000000000000e+00
-9.000000000000000e-01 7.654042494670958e-18 1.250000000000000e-01
-1.100000000000000e+00 7.654042494670958e-18 1.250000000000000e-01
-1.000000000000000e+00 1.250000000000000e-01 0.000000000000000e+00
-9.000000000000000e-01 8.838834764831845e-02 8.838834764831843e-02
-1.000000000000000e+00 7.654042494670958e-18 1.250000000000000e-01
-1.100000000000000e+00 8.838834764831845e-02 8.838834764831843e-02
-1.000000000000000e+00 8.838834764831845e-02 8.838834764831843e-02
-1.100000000000000e+00 7.654042494670958e-18 1.250000000000000e-01
-9.000000000000000e-01 7.654042494670958e-18 1.250000000000000e-01
-9.000000000000000e-01 -1.250000000000000e-01 1.530808498934192e-17
-1.100000000000000e+00 -1.250000000000000e-01 1.530808498934192e-17
-1.000000000000000e+00 7.654042494670958e-18 1.250000000000000e-01
-9.000000000000000e-01 -8.838834764831843e-02 8.838834764831845e-02
-1.000000000000000e+00 -1.250000000000000e-01 1.530808498934192e-17
-1.100000000000000e+00 -8.838834764831843e-02 8.838834764831845e-02
-1.000000000000000e+00 -8.838834764831843e-02 8.838834764831845e-02
-1.100000000000000e+00 -1.250000000000000e-01 1.530808498934192e-17
-9.000000000000000e-01 -1.250000000000000e-01 1.530808498934192e-17
-9.000000000000000e-01 -2.296212748401287e-17 -1.250000000000000e-01
-1.100000000000000e+00 -2.296212748401287e-17 -1.250000000000000e-01
-1.000000000000000e+00 -1.250000000000000e-01 1.530808498934192e-17
-9.000000000000000e-01 -8.838834764831846e-02 -8.838834764831843e-02
-1.000000000000000e+00 -2.296212748401287e-17 -1.250000000000000e-01
-1.100000000000000e+00 -8.838834764831846e-02 -8.838834764831843e-02
-1.000000000000000e+00 -8.838834764831846e-02 -8.838834764831843e-02
-1.100000000000000e+00 -2.296212748401287e-17 -1.250000000000000e-01
-9.000000000000000e-01 -2.296212748401287e-17 -1.250000000000000e-01
-9.000000000000000e-01 1.250000000000000e-01 -3.061616997868383e-17
-1.100000000000000e+00 1.250000000000000e-01 -3.061616997868383e-17
-1.000000000000000e+00 -2.296212748401287e-17 -1.250000000000000e-01
-9.000000000000000e-01 8.838834764831842e-02 -8.838834764831846e-02
-1.000000000000000e+00 1.250000000000000e-01 -3.061616997868383e-17
-1.100000000000000e+00 8.838834764831842e-02 -8.838834764831846e-02
-1.000000000000000e+00 8.838834764831842e-02 -8.838834764831846e-02
-9.000000000000000e-01 1.250000000000000e-01 0.000000000000000e+00
-7.000000000000000e-01 1.250000000000000e-01 0.000000000000000e+00
-7.000000000000000e-01 7.654042494670958e-18 1.250000000000000e-01
-9.000000000000000e-01 7.654042494670958e-18 1.250000000000000e-01
-8.000000000000000e-01 1.250000000000000e-01 0.000000000000000e+00
-7.000000000000000e-01 8.838834764831845e-02 8.838834764831843e-02
-8.000000000000000e-01 7.654042494670958e-18 1.250000000000000e-01
-9.000000000000000e-01 8.838834764831845e-02 8.838834764831843e-02
-8.000000000000000e-01 8.838834764831845e-02 8.838834764831843e-02
-9.000000000000000e-01 7.654042494670958e-18 1.250000000000000e-01
-7.000000000000000e-01 7.654042494670958e-18 1.250000000000000e-01
-7.000000000000000e-01 -1.250000000000000e-01 1.530808498934192e-17
-9.000000000000000e-01 -1.250000000000000e-01 1.530808498934192e-17
-8.000000000000000e-01 7.654042494670958e-18 1.250000000000000e-01
-7.000000000000000e-01 -8.838834764831843e-02 8.838834764831845e-02
-8.000000000000000e-01 -1.250000000000000e-01 1.530808498934192e-17
-9.000000000000000e-01 -8.838834764831843e-02 8.838834764831845e-02
-8.000000000000000e-01 -8.838834764831843e-02 8.838834764831845e-02
-9.000000000000000e-01 -1.250000000000000e-01 1.530808498934192e-17
-7.000000000000000e-01 -1.250000000000000e-01 1.530808498934192e-17
-7.000000000000000e-01 -2.296212748401287e-17 -1.250000000000000e-01
-9.000000000000000e-01 -2.296212748401287e-17 -1.250000000000000e-01
-8.000000000000000e-01 -1.250000000000000e-01 1.530808498934192e-17
-7.000000000000000e-01 -8.838834764831846e-02 -8.838834764831843e-02
-8.000000000000000e-01 -2.296212748401287e-17 -1.250000000000000e-01
-9.000000000000000e-01 -8.838834764831846e-02 -8.838834764831843e-02
-8.000000000000000e-01 -8.838834764831846e-02 -8.838834764831843e-02
-9.000000000000000e-01 -2.296212748401287e-17 -1.250000000000000e-01
-7.000000000000000e-01 -2.296212748401287e-17 -1.250000000000000e-01
-7.000000000000000e-01 1.250000000000000e-01 -3.061616997868383e-17
-9.000000000000000e-01 1.250000000000000e-01 -3.061616997868383e-17
-8.000000000000000e-01 -2.296212748401287e-17 -1.250000000000000e-01
[...]
  <PointData>
        <DataArray type="Float64" Name="displacement" NumberOfComponents="3" format="ascii">
-6.904579575018310e-02 1.801819773918936e-01 1.562389361098441e-01
-8.398997902559446e-02 2.331625122452952e-01 1.944946094756783e-01
-5.933935007245905e-02 2.115968295702521e-01 1.652069240136383e-01
-4.734157366001268e-02 1.592090599753902e-01 1.285571467611669e-01
-7.626750886874545e-02 2.060440764444275e-01 1.749302170391983e-01
-8.322546347830029e-02 2.141014028605200e-01 1.839064687970978e-01
-5.309661553542000e-02 1.847742331788342e-01 1.464612620620014e-01
-6.880855317433565e-02 1.621374685019372e-01 1.463716737966677e-01
-7.577938841246423e-02 1.874967269150590e-01 1.647093775885119e-01
-4.734157366001268e-02 1.592090599753902e-01 1.285571467611669e-01
-5.933935007245905e-02 2.115968295702521e-01 1.652069240136383e-01
-3.518874938618355e-03 2.515678435555309e-01 1.456242622137510e-01
3.911545182468057e-03 1.957025544829261e-01 1.093707524847617e-01
-5.309661553542000e-02 1.847742331788342e-01 1.464612620620014e-01
-2.632380008883084e-02 2.271159374399728e-01 1.493499148492475e-01
4.860153509431697e-04 2.229788146572399e-01 1.270817032908337e-01
-1.721992266351902e-02 1.731121738109348e-01 1.132308633334757e-01
-2.150645095675663e-02 1.994713951429576e-01 1.308753690473456e-01
3.911545182468057e-03 1.957025544829261e-01 1.093707524847617e-01
-3.518874938618355e-03 2.515678435555309e-01 1.456242622137510e-01
-2.816950389175377e-02 2.731335262305740e-01 1.749119476757909e-01
-1.779267690770236e-02 2.166754718994295e-01 1.370525418334389e-01
4.860153509431697e-04 2.229788146572399e-01 1.270817032908337e-01
-4.283390485912530e-03 2.706289529403060e-01 1.562124028923315e-01
-2.268487798238228e-02 2.442486579228332e-01 1.555506582680307e-01
3.674302606620605e-03 2.137470633728824e-01 1.192380147979380e-01
-2.105105337824043e-06 2.415261641866084e-01 1.373025427415202e-01
-1.779267690770236e-02 2.166754718994295e-01 1.370525418334389e-01
-2.816950389175377e-02 2.731335262305740e-01 1.749119476757909e-01
-8.398997902559446e-02 2.331625122452952e-01 1.944946094756782e-01
-6.904579575018310e-02 1.801819773918936e-01 1.562389361098441e-01
-2.268487798238228e-02 2.442486579228332e-01 1.555506582680307e-01
-6.118505387538198e-02 2.576144183608532e-01 1.907689568401817e-01
-7.626750886874545e-02 2.060440764444275e-01 1.749302170391983e-01
-4.791432790419603e-02 2.027723580638848e-01 1.523788252611301e-01
-5.427504256104565e-02 2.295514959587097e-01 1.711365512826865e-01
-8.398997902559446e-02 2.331625122452952e-01 1.944946094756783e-01
-1.009574523798202e-01 2.910168082329624e-01 2.361577641855136e-01
-7.330813561184057e-02 2.688642023336146e-01 2.051344945994578e-01
-5.933935007245905e-02 2.115968295702521e-01 1.652069240136383e-01
-9.221827004942851e-02 2.614994005530860e-01 2.149108827597629e-01
-9.956333628614500e-02 2.708980141214051e-01 2.247929582132264e-01
-6.607482516858676e-02 2.396393320552520e-01 1.847720474720619e-01
-8.322546347830029e-02 2.141014028605200e-01 1.839064687970978e-01
-9.115176971229588e-02 2.419142604234711e-01 2.039415003574706e-01
-5.933935007245905e-02 2.115968295702521e-01 1.652069240136383e-01
-7.330813561184057e-02 2.688642023336146e-01 2.051344945994578e-01
-1.328816804198119e-02 3.125252119349304e-01 1.851118338397137e-01
-3.518874938618355e-03 2.515678435555309e-01 1.456242622137510e-01
-6.607482516858676e-02 2.396393320552520e-01 1.847720474720619e-01
-3.757179082908735e-02 2.861067522315645e-01 1.886980347137352e-01
-8.108485126467002e-03 2.814298800571637e-01 1.649753260993070e-01
-2.632380008883084e-02 2.271159374399728e-01 1.493499148492475e-01
-3.167717042912788e-02 2.560072376331040e-01 1.686317296205371e-01
-3.518874938618355e-03 2.515678435555309e-01 1.456242622137510e-01
-1.328816804198119e-02 3.125252119349304e-01 1.851118338397137e-01
-4.093748480996084e-02 3.346778178342782e-01 2.161351034257696e-01
-2.816950389175377e-02 2.731335262305740e-01 1.749119476757909e-01
-8.108485126467002e-03 2.814298800571637e-01 1.649753260993070e-01
-1.468228413565642e-02 3.326440060464878e-01 1.964766398120009e-01
-3.425193000730875e-02 3.032899485549977e-01 1.951141613870081e-01
-4.283390485912530e-03 2.706289529403060e-01 1.562124028923315e-01
-9.174985463599628e-03 3.010150201867786e-01 1.759447085015994e-01
-2.816950389175377e-02 2.731335262305740e-01 1.749119476757909e-01
-4.093748480996084e-02 3.346778178342782e-01 2.161351034257696e-01
-1.009574523798202e-01 2.910168082329624e-01 2.361577641855136e-01
-8.398997902559446e-02 2.331625122452952e-01 1.944946094756782e-01
-3.425193000730875e-02 3.032899485549977e-01 1.951141613870081e-01
-7.667382959271407e-02 3.174352679363284e-01 2.325715633114921e-01
-9.221827004942851e-02 2.614994005530860e-01 2.149108827597629e-01
-6.118505387538198e-02 2.576144183608532e-01 1.907689568401817e-01
-6.864958474676763e-02 2.869220429771457e-01 2.112544792385329e-01
-1.009574523798202e-01 2.910168082329624e-01 2.361577641855136e-01
-1.199887863207251e-01 3.534412046422444e-01 2.810580509502960e-01
-8.928886496557098e-02 3.307107850241092e-01 2.481625456736104e-01
-7.330813561184057e-02 2.688642023336146e-01 2.051344945994578e-01
-1.102125998041132e-01 3.216767532299658e-01 2.582139390971144e-01
-1.178625346366989e-01 3.322288186855613e-01 2.688587624601621e-01
-8.104442119904642e-02 2.992338805417245e-01 2.262720749601436e-01
-9.956333628614500e-02 2.708980141214051e-01 2.247929582132264e-01
-1.084652265647921e-01 3.010153286324415e-01 2.464392614526096e-01
-7.330813561184057e-02 2.688642023336146e-01 2.051344945994578e-01
-8.928886496557098e-02 3.307107850241092e-01 2.481625456736104e-01
-2.543914977135997e-02 3.782571574374096e-01 2.276491461418869e-01
-1.328816804198119e-02 3.125252119349304e-01 1.851118338397137e-01
-8.104442119904642e-02 2.992338805417245e-01 2.262720749601436e-01
-5.100584547391940e-02 3.497763471886279e-01 2.310929636943892e-01
-1.906327316676792e-02 3.448141758817437e-01 2.060107662770596e-01
-3.757179082908735e-02 2.861067522315645e-01 1.886980347137352e-01
-4.401291959893738e-02 3.173759570886930e-01 2.095260439520956e-01
-1.328816804198119e-02 3.125252119349304e-01 1.851118338397137e-01
-2.543914977135997e-02 3.782571574374096e-01 2.276491461418869e-01
-5.613907112651417e-02 4.009875770555448e-01 2.605446514185725e-01
-4.093748480996084e-02 3.346778178342782e-01 2.161351034257696e-01
-1.906327316676792e-02 3.448141758817437e-01 2.060107662770596e-01
-2.756540145538622e-02 3.994695433940928e-01 2.398484346320208e-01
-4.823145177183474e-02 3.672570485699850e-01 2.379526304140305e-01
-1.468228413565642e-02 3.326440060464878e-01 1.964766398120009e-01
-2.081064640608909e-02 3.654756004792680e-01 2.177854439215645e-01
-4.093748480996084e-02 3.346778178342782e-01 2.161351034257696e-01
-5.613907112651417e-02 4.009875770555448e-01 2.605446514185725e-01
-1.199887863207251e-01 3.534412046422444e-01 2.810580509502961e-01
-1.009574523798202e-01 2.910168082329624e-01 2.361577641855136e-01
-4.823145177183474e-02 3.672570485699850e-01 2.379526304140305e-01
-9.442209061816575e-02 3.819220148910261e-01 2.776142333977937e-01
-1.102125998041132e-01 3.216767532299658e-01 2.582139390971145e-01
-7.667382959271407e-02 3.174352679363284e-01 2.325715633114921e-01
-8.526295337194378e-02 3.491149720230165e-01 2.546986614220785e-01
-1.199887863207251e-01 3.534412046422444e-01 2.810580509502960e-01
-1.411245557494857e-01 4.201312599625932e-01 3.290244499379456e-01
-1.073231655543001e-01 3.968358367204070e-01 2.941129257064571e-01
-8.928886496557098e-02 3.307107850241092e-01 2.481625456736104e-01
-1.302910831294851e-01 3.862720828882893e-01 3.046687013327435e-01
-1.381639145117005e-01 3.977945349996125e-01 3.159304347679070e-01
-9.804669152969625e-02 3.632573122286883e-01 2.707836116215935e-01
-1.178625346366989e-01 3.322288186855613e-01 2.688587624601621e-01
-1.277603820149883e-01 3.645010491047891e-01 2.920297470775760e-01
-8.928886496557098e-02 3.307107850241092e-01 2.481625456736104e-01
-1.073231655543001e-01 3.968358367204070e-01 2.941129257064571e-01
-4.001463137718242e-02 4.484469586771504e-01 2.730525484425332e-01
-2.543914977135997e-02 3.782571574374096e-01 2.276491461418869e-01
-9.804669152969625e-02 3.632573122286883e-01 2.707836116215935e-01
-6.666840134278584e-02 4.178167575747112e-01 2.763523236645954e-01
-3.242114992487866e-02 4.128145908213911e-01 2.500040380327834e-01
-5.100584547391940e-02 3.497763471886279e-01 2.310929636943892e-01
-5.855588857173666e-02 3.832694364539831e-01 2.533759929668947e-01
-2.543914977135997e-02 3.782571574374096e-01 2.276491461418869e-01
-4.001463137718242e-02 4.484469586771504e-01 2.730525484425332e-01
-7.381602157236800e-02 4.717423819193365e-01 3.079640726740217e-01
-5.613907112651417e-02 4.009875770555448e-01 2.605446514185725e-01
-3.242114992487866e-02 4.128145908213911e-01 2.500040380327834e-01
-4.297527261496759e-02 4.707836836401309e-01 2.861465636125718e-01
-6.466554152466752e-02 4.358293614809922e-01 2.838891277439334e-01
-2.756540145538622e-02 3.994695433940928e-01 2.398484346320208e-01
-3.495185103937548e-02 4.345856246048914e-01 2.626429922879509e-01
-5.613907112651417e-02 4.009875770555448e-01 2.605446514185725e-01
-7.381602157236800e-02 4.717423819193365e-01 3.079640726740217e-01
-1.411245557494857e-01 4.201312599625932e-01 3.290244499379456e-01
-1.199887863207251e-01 3.534412046422444e-01 2.810580509502961e-01
-6.466554152466752e-02 4.358293614809922e-01 2.838891277439334e-01
-1.144707857838823e-01 4.507614610650323e-01 3.257246747158834e-01
-1.302910831294850e-01 3.862720828882893e-01 3.046687013327435e-01
-9.442209061816575e-02 3.819220148910261e-01 2.776142333977937e-01
-1.041563444826271e-01 4.158172372556972e-01 3.012967463986321e-01
-1.411245557494857e-01 4.201312599625932e-01 3.290244499379456e-01
-1.644052456985566e-01 4.907817585652249e-01 3.798852705955600e-01
-1.274533064685469e-01 4.669382672788185e-01 3.428066518905280e-01
-1.073231655543001e-01 3.968358367204070e-01 2.941129257064571e-01
-1.524942612648268e-01 4.549805597744833e-01 3.541038144872906e-01
-1.605087220752213e-01 4.672950871884294e-01 3.658334662930306e-01
-1.171235903281236e-01 4.314087113080114e-01 3.181280891585462e-01
-1.381639145117005e-01 3.977945349996125e-01 3.159304347679070e-01
-1.490782992870452e-01 4.320717420942171e-01 3.405389787778189e-01
-1.073231655543001e-01 3.968358367204070e-01 2.941129257064571e-01
-1.274533064685469e-01 4.669382672788185e-01 3.428066518905280e-01
-5.705751397859771e-02 5.227786683865705e-01 3.211390607847375e-01
-4.001463137718242e-02 4.484469586771504e-01 2.730525484425332e-01
-1.171235903281236e-01 4.314087113080114e-01 3.181280891585462e-01
-8.460241303104410e-02 4.899203191001173e-01 3.242936229667903e-01
-4.822496031312129e-02 4.851147917333137e-01 2.967718258360210e-01
-6.666840134278584e-02 4.178167575747112e-01 2.763523236645954e-01
-7.534876951451330e-02 4.533798618581545e-01 2.999991408235960e-01
-4.001463137718242e-02 4.484469586771504e-01 2.730525484425332e-01
-5.705751397859771e-02 5.227786683865705e-01 3.211390607847375e-01
-9.400945320860743e-02 5.466221596729768e-01 3.582176794897695e-01
-7.381602157236800e-02 4.717423819193365e-01 3.079640726740217e-01
-4.822496031312129e-02 4.851147917333137e-01 2.967718258360210e-01
-6.095403760193308e-02 5.462653397633659e-01 3.351908650872669e-01
-8.359563124982450e-02 5.086866401997856e-01 3.327475511647652e-01
-4.297527261496759e-02 4.707836836401309e-01 2.861465636125718e-01
-5.164092229090289e-02 5.080236094135798e-01 3.103366615454926e-01
-7.381602157236800e-02 4.717423819193365e-01 3.079640726740217e-01
-9.400945320860743e-02 5.466221596729768e-01 3.582176794897695e-01
-1.644052456985566e-01 4.907817585652249e-01 3.798852705955601e-01
-1.411245557494857e-01 4.201312599625932e-01 3.290244499379456e-01
-8.359563124982450e-02 5.086866401997856e-01 3.327475511647652e-01
-1.368603466461102e-01 5.236401078516780e-01 3.767307084135073e-01
-1.524942612648268e-01 4.549805597744833e-01 3.541038144872906e-01
-1.144707857838823e-01 4.507614610650323e-01 3.257246747158834e-01
-1.253704520634348e-01 4.867154896496425e-01 3.508764994997154e-01
-1.644052456985566e-01 4.907817585652249e-01 3.798852705955601e-01
-1.894541279903231e-01 5.650546379199874e-01 4.333231083326894e-01
-1.495210858322352e-01 5.406633310478363e-01 3.939828396831385e-01
-1.274533064685469e-01 4.669382672788185e-01 3.428066518905280e-01
-1.766954690745314e-01 5.275181809377577e-01 4.063161360899212e-01
-1.845605133611308e-01 5.404436340982196e-01 4.182883699674113e-01
-1.382546997356749e-01 5.033939298798481e-01 3.681162800935713e-01
-1.605087220752213e-01 4.672950871884294e-01 3.658334662930306e-01
-1.723112551193469e-01 5.034664613048991e-01 3.917766005876412e-01
-1.274533064685469e-01 4.669382672788185e-01 3.428066518905280e-01
-1.495210858322352e-01 5.406633310478363e-01 3.939828396831385e-01
-7.674265548100934e-02 6.006099456133407e-01 3.716011680983626e-01
-5.705751397859771e-02 5.227786683865705e-01 3.211390607847375e-01
-1.382546997356749e-01 5.033939298798481e-01 3.681162800935713e-01
-1.048614668322740e-01 5.655850332753639e-01 3.746443674797281e-01
-6.661933063165615e-02 5.612848112658341e-01 3.460967572669033e-01
-8.460241303104410e-02 4.899203191001173e-01 3.242936229667903e-01
-9.447567117956046e-02 5.273430745877012e-01 3.491950694630436e-01
-5.705751397859771e-02 5.227786683865705e-01 3.211390607847375e-01
-7.674265548100934e-02 6.006099456133407e-01 3.716011680983626e-01
-1.166756976390973e-01 6.250012524854919e-01 4.109414367479135e-01
-9.400945320860743e-02 5.466221596729768e-01 3.582176794897695e-01
-6.661933063165615e-02 5.612848112658341e-01 3.460967572669033e-01
-8.163627011020164e-02 6.252209494351085e-01 3.866359064636407e-01
-1.050600999705125e-01 5.854090623237436e-01 3.842966132632532e-01
-6.095403760193308e-02 5.462653397633659e-01 3.351908650872669e-01
-7.100354458684072e-02 5.853365308986926e-01 3.606362927691833e-01
-9.400945320860743e-02 5.466221596729768e-01 3.582176794897695e-01
-1.166756976390973e-01 6.250012524854919e-01 4.109414367479135e-01
-1.894541279903231e-01 5.650546379199874e-01 4.333231083326894e-01
-1.644052456985566e-01 4.907817585652249e-01 3.798852705955601e-01
-1.050600999705125e-01 5.854090623237436e-01 3.842966132632532e-01
-1.613353166390585e-01 6.000795502579642e-01 4.302799089513240e-01
-1.766954690745314e-01 5.275181809377577e-01 4.063161360899213e-01
-1.368603466461102e-01 5.236401078516780e-01 3.767307084135073e-01
-1.488391285266271e-01 5.614599176158905e-01 4.032178238937809e-01
-1.894541279903231e-01 5.650546379199874e-01 4.333231083326894e-01
-2.163266360835617e-01 6.424121261141899e-01 4.889595327362201e-01
-1.734017852892920e-01 6.175269681145104e-01 4.472775775746631e-01
-1.495210858322352e-01 5.406633310478363e-01 3.939828396831385e-01
-2.026686946440103e-01 6.033622580896878e-01 4.608797376892395e-01
-2.103511348977392e-01 6.167008156363261e-01 4.729110411676986e-01
-1.612406995281319e-01 5.787173861344512e-01 4.203790484448876e-01
-1.845605133611308e-01 5.404436340982196e-01 4.182883699674113e-01
-1.972444783619782e-01 5.781979808022017e-01 4.453420968519242e-01
-1.495210858322352e-01 5.406633310478363e-01 3.939828396831385e-01
-1.734017852892920e-01 6.175269681145104e-01 4.472775775746631e-01
-9.862430034850297e-02 6.815940710939751e-01 4.241374081181146e-01
-7.674265548100934e-02 6.006099456133407e-01 3.716011680983626e-01
-1.612406995281319e-01 5.787173861344512e-01 4.203790484448876e-01
-1.271230151379835e-01 6.444066346316104e-01 4.270748772793168e-01
-8.741510488410564e-02 6.407232810467025e-01 3.976241016591722e-01
-1.048614668322740e-01 5.655850332753639e-01 3.746443674797281e-01
-1.157478834866572e-01 6.046162134871731e-01 4.006136076667956e-01
-7.674265548100934e-02 6.006099456133407e-01 3.716011680983626e-01
-9.862430034850297e-02 6.815940710939751e-01 4.241374081181146e-01
-1.415491511427727e-01 7.064792290936546e-01 4.658193632796715e-01
-1.166756976390973e-01 6.250012524854919e-01 4.109414367479135e-01
-8.741510488410564e-02 6.407232810467025e-01 3.976241016591722e-01
-1.045998015343255e-01 7.073053815718389e-01 4.401858996866361e-01
-1.288430999999840e-01 6.653681530019391e-01 4.381247909035241e-01
-8.163627011020164e-02 6.252209494351085e-01 3.866359064636407e-01
-9.283932116613769e-02 6.658875583341884e-01 4.131617424964875e-01
-1.166756976390973e-01 6.250012524854919e-01 4.109414367479135e-01
-1.415491511427727e-01 7.064792290936546e-01 4.658193632796715e-01
-2.163266360835617e-01 6.424121261141899e-01 4.889595327362201e-01
-1.894541279903231e-01 5.650546379199874e-01 4.333231083326894e-01
-1.288430999999840e-01 6.653681530019391e-01 4.381247909035241e-01
-1.878279212940812e-01 6.795995625765545e-01 4.860220635750179e-01
-2.026686946440103e-01 6.033622580896878e-01 4.608797376892395e-01
-1.613353166390585e-01 6.000795502579642e-01 4.302799089513240e-01
-1.743359160414587e-01 6.394693256492172e-01 4.578902316816161e-01
-2.163266360835617e-01 6.424121261141899e-01 4.889595327362201e-01
-2.449224693381466e-01 7.226227294981594e-01 5.465824426707940e-01
-1.990013913967724e-01 6.972959993319555e-01 5.024720513868680e-01
-1.734017852892920e-01 6.175269681145104e-01 4.472775775746631e-01
-2.304154114450375e-01 6.821752835198158e-01 5.175359598325623e-01
-2.377844605118633e-01 6.958369094317766e-01 5.294873093483641e-01
-1.859925959263594e-01 6.570629086750689e-01 4.746510521108009e-01
-2.103511348977392e-01 6.167008156363261e-01 4.729110411676986e-01
-2.238684680503060e-01 6.559233931199165e-01 5.009684003505313e-01
-1.734017852892920e-01 6.175269681145104e-01 4.472775775746631e-01
-1.990013913967724e-01 6.972959993319555e-01 5.024720513868680e-01
-1.226034576654189e-01 7.654852440412355e-01 4.785227519428034e-01
-9.862430034850297e-02 6.815940710939751e-01 4.241374081181146e-01
-1.859925959263594e-01 6.570629086750689e-01 4.746510521108009e-01
-1.512918578900411e-01 7.261452841238927e-01 4.813618405091426e-01
-1.103578712936682e-01 7.231916124242217e-01 4.511129798616905e-01
-1.271230151379835e-01 6.444066346316104e-01 4.270748772793168e-01
-1.389749672766966e-01 6.849263174275997e-01 4.540002607865096e-01
-9.862430034850297e-02 6.815940710939751e-01 4.241374081181146e-01
-1.226034576654189e-01 7.654852440412355e-01 4.785227519428034e-01
-1.685245356067931e-01 7.908119742074394e-01 5.226331432267294e-01
-1.415491511427727e-01 7.064792290936546e-01 4.658193632796715e-01
-1.103578712936682e-01 7.231916124242217e-01 4.511129798616905e-01
-1.297414664917022e-01 7.922710641076184e-01 4.956178852652333e-01
-1.547806868123463e-01 7.483039872689686e-01 4.939978875834519e-01
-1.045998015343255e-01 7.073053815718389e-01 4.401858996866361e-01
-1.169048146883997e-01 7.494435028241210e-01 4.676805393437215e-01
-1.415491511427727e-01 7.064792290936546e-01 4.658193632796715e-01
-1.685245356067931e-01 7.908119742074394e-01 5.226331432267294e-01
-2.449224693381466e-01 7.226227294981594e-01 5.465824426707940e-01
-2.163266360835617e-01 6.424121261141899e-01 4.889595327362201e-01
-1.547806868123463e-01 7.483039872689686e-01 4.939978875834519e-01
-2.162340691135244e-01 7.619626894155023e-01 5.437433541044547e-01
-2.304154114450375e-01 6.821752835198159e-01 5.175359598325623e-01
-1.878279212940812e-01 6.795995625765545e-01 4.860220635750179e-01
-2.017983154620091e-01 7.204405785164379e-01 5.146486789077431e-01
-2.449224693381466e-01 7.226227294981594e-01 5.465824426707940e-01
-2.751411598698092e-01 8.054542773178485e-01 6.059790541383545e-01
-2.262260062713091e-01 7.797366029979403e-01 5.593467158109684e-01
-1.990013913967724e-01 6.972959993319555e-01 5.024720513868680e-01
-2.598352453789925e-01 7.637254217437334e-01 5.760723618032825e-01
-2.667643274838137e-01 7.776212599732610e-01 5.878020041196634e-01
-2.124164377582168e-01 7.381969925693044e-01 5.307131095025774e-01
-2.377844605118633e-01 6.958369094317766e-01 5.294873093483641e-01