<?xml version="1.0" ?> 
<!-- 
# vtk DataFile Version 3.0
-->
<VTKFile type="UnstructuredGrid" version="0.1" compressor="vtkZLibDataCompressor" byte_order="LittleEndian">
  <UnstructuredGrid>
    <FieldData>
      <DataArray type="Float64" Name="TIME" NumberOfTuples="1" format="ascii">
3.000000000000000e+00 
      </DataArray>
    </FieldData>

    <Piece NumberOfPoints="24" NumberOfCells="0" >
      <Points>
        <DataArray type="Float64" NumberOfComponents="3" format="ascii">
-1.000000000000000e+00 1.000000000000000e+00 0.000000000000000e+00
-1.000000000000000e+00 1.000000000000000e+00 1.000000000000000e+00
0.000000000000000e+00 1.000000000000000e+00 1.000000000000000e+00
0.000000000000000e+00 1.000000000000000e+00 0.000000000000000e+00
0.000000000000000e+00 1.000000000000000e+00 -1.000000000000000e+00
0.000000000000000e+00 1.000000000000000e+00 0.000000000000000e+00
1.000000000000000e+00 1.000000000000000e+00 0.000000000000000e+00
1.000000000000000e+00 1.000000000000000e+00 -1.000000000000000e+00
-1.000000000000000e+00 1.000000000000000e+00 -1.000000000000000e+00
-1.000000000000000e+00 1.000000000000000e+00 0.000000000000000e+00
0.000000000000000e+00 1.000000000000000e+00 0.000000000000000e+00
0.000000000000000e+00 1.000000000000000e+00 -1.000000000000000e+00
1.000000000000000e+00 1.000000000000000e+00 0.000000000000000e+00
1.000000000000000e+00 1.000000000000000e+00 1.000000000000000e+00
2.000000000000000e+00 1.000000000000000e+00 1.000000000000000e+00
2.000000000000000e+00 1.000000000000000e+00 0.000000000000000e+00
1.000000000000000e+00 1.000000000000000e+00 -1.000000000000000e+00
1.000000000000000e+00 1.000000000000000e+00 0.000000000000000e+00
2.000000000000000e+00 1.000000000000000e+00 0.000000000000000e+00
2.000000000000000e+00 1.000000000000000e+00 -1.000000000000000e+00
0.000000000000000e+00 1.000000000000000e+00 0.000000000000000e+00
0.000000000000000e+00 1.000000000000000e+00 1.000000000000000e+00
1.000000000000000e+00 1.000000000000000e+00 1.000000000000000e+00
1.000000000000000e+00 1.000000000000000e+00 0.000000000000000e+00
        </DataArray>
      </Points>

      <Cells>
        <DataArray type="Int32" Name="connectivity" format="ascii">

        </DataArray>
        <DataArray type="Int32" Name="offsets" format="ascii">

        </DataArray>
        <DataArray type="UInt8" Name="types" format="ascii">

        </DataArray>
      </Cells>

  <PointData>
        <DataArray type="Int32" Name="coupling_id" format="ascii">
1
1
1
1
1
1
1
1
1
1
1
1
1
1
1
1
1
1
1
1
1
1
1
1
        </DataArray>
        <DataArray type="Float64" Name="displacement" NumberOfComponents="3" format="ascii">
2.492348675422495e-02 -2.018929901530164e-02 -3.541671407361845e-02
1.913713872754630e-02 2.177784639183056e-03 -2.916450188813247e-02
1.269395756508089e-02 -3.070822944892138e-03 -4.141688584423564e-02
1.669727322856755e-02 -1.124903005873439e-01 -4.867217831193320e-02
6.960721202764637e-03 -3.274665804249576e-01 -7.914273471726418e-02
1.669727322856755e-02 -1.124903005873439e-01 -4.867217831193320e-02
-2.567347127975461e-03 -7.701269856790371e-02 -5.921458826171568e-02
7.101710143476492e-03 -3.220594474773075e-01 -8.395159510827099e-02
2.279613925191115e-02 -3.053410849664451e-02 -4.051878418553390e-02
2.492348675422495e-02 -2.018929901530164e-02 -3.541671407361845e-02
1.669727322856755e-02 -1.124903005873439e-01 -4.867217831193320e-02
6.960721202764637e-03 -3.274665804249576e-01 -7.914273471726418e-02
-2.567347127975461e-03 -7.701269856790371e-02 -5.921458826171568e-02
6.826576371644855e-03 5.559436521349159e-03 -4.919587462449360e-02
1.388116839073916e-03 1.305414753027856e-02 -5.099212599795122e-02
-1.105809393625257e-02 -2.642284411800622e-02 -5.592535448598189e-02
7.101710143476492e-03 -3.220594474773075e-01 -8.395159510827099e-02
-2.567347127975461e-03 -7.701269856790371e-02 -5.921458826171568e-02
-1.105809393625257e-02 -2.642284411800622e-02 -5.592535448598189e-02
-2.761196339887784e-02 -2.982257633766594e-02 -6.554510390484802e-02
1.669727322856755e-02 -1.124903005873439e-01 -4.867217831193320e-02
1.269395756508089e-02 -3.070822944892138e-03 -4.141688584423564e-02
6.826576371644855e-03 5.559436521349159e-03 -4.919587462449360e-02
-2.567347127975461e-03 -7.701269856790371e-02 -5.921458826171568e-02
        </DataArray>
        <DataArray type="Float64" Name="normal_averaged" NumberOfComponents="3" format="ascii">
6.082557248924803e-02 9.980182772936591e-01 -1.611731736836069e-02
1.167503976576904e-02 9.996863976494722e-01 -2.215400192040213e-02
-2.777653698018757e-03 9.941463105598305e-01 -1.080064712885816e-01
2.609339898915190e-02 9.873637292340036e-01 -1.563073917711970e-01
1.362146160374741e-01 9.695421452605801e-01 -2.035524672935112e-01
2.609339898915190e-02 9.873637292340036e-01 -1.563073917711970e-01
-4.359678430477219e-02 9.865822862532412e-01 -1.573363049318587e-01
-1.437126641855902e-01 9.621752123206828e-01 -2.314422842704613e-01
1.600925150579585e-01 9.870461906460604e-01 -1.049781660721437e-02
6.082557248924803e-02 9.980182772936591e-01 -1.611731736836069e-02
2.609339898915190e-02 9.873637292340036e-01 -1.563073917711970e-01
1.362146160374741e-01 9.695421452605801e-01 -2.035524672935112e-01
-4.359678430477219e-02 9.865822862532413e-01 -1.573363049318587e-01
-8.473197438910823e-03 9.966454939710717e-01 -8.140002624274773e-02
-7.600418040929100e-03 9.992041333751214e-01 -3.915780243675364e-02
-5.087801749060988e-02 9.984933406133742e-01 -2.055422309331637e-02
-1.437126641855902e-01 9.621752123206828e-01 -2.314422842704613e-01
-4.359678430477219e-02 9.865822862532412e-01 -1.573363049318587e-01
-5.087801749060988e-02 9.984933406133742e-01 -2.055422309331637e-02
-2.897847945342543e-01 9.570906104084974e-01 1.528504049690426e-03
2.609339898915190e-02 9.873637292340036e-01 -1.563073917711970e-01
-2.777653698018757e-03 9.941463105598305e-01 -1.080064712885816e-01
-8.473197438910823e-03 9.966454939710717e-01 -8.140002624274773e-02
-4.359678430477219e-02 9.865822862532412e-01 -1.573363049318587e-01
        </DataArray>
        <DataArray type="Float64" Name="normal_element" NumberOfComponents="3" format="ascii">
9.235835508907929e-02 9.954915934071538e-01 -2.159679839526275e-02
5.007589785997159e-03 9.997411514800648e-01 -2.219355946776518e-02
3.920127658102836e-03 9.941453648950834e-01 -1.079797483640584e-01
9.071171939678581e-02 9.900912813111961e-01 -1.071943964749696e-01
-6.274036134410453e-03 9.789170264038315e-01 -2.041619256552607e-01
-3.757972707916245e-02 9.783038909053984e-01 -2.037382172102568e-01
-3.765656803815945e-02 9.718084490356420e-01 -2.327451852703461e-01
-6.376449882269961e-03 9.725453059368389e-01 -2.326262426879635e-01
2.884573589828401e-01 9.574355545667855e-01 -1.046474557916517e-02
9.252270733943049e-02 9.956558058482743e-01 -1.044341453768011e-02
8.800657792393039e-02 9.749595461524734e-01 -2.042271421929077e-01
2.759256784011563e-01 9.403970628009177e-01 -1.987923144245484e-01
-5.052200718582001e-02 9.954401208813902e-01 -8.091039815474350e-02
-7.657488839655640e-03 9.966514357244461e-01 -8.140809869460590e-02
-7.600418040929100e-03 9.992041333751214e-01 -3.915780243675364e-02
-5.079123308320620e-02 9.979640696859156e-01 -3.857416567875840e-02
-2.783226239043872e-01 9.335524852392090e-01 -2.258678249035783e-01
-4.878748068800878e-02 9.713162996012751e-01 -2.327325242784158e-01
-5.094826623756822e-02 9.986980952241274e-01 -2.527600262248586e-03
-2.897847945342543e-01 9.570906104084974e-01 1.528504049690426e-03
-3.709925630297994e-02 9.934511013727128e-01 -1.080673603041633e-01
-9.475310445845292e-03 9.941026578367778e-01 -1.080283489358652e-01
-9.288900399414199e-03 9.966388889690690e-01 -8.139189962071965e-02
-3.690227462772816e-02 9.960238343584373e-01 -8.108479214511013e-02
        </DataArray>
        <DataArray type="Int32" Name="uid_0_face_id" format="ascii">
2
2
2
2
5
5
5
5
3
3
3
3
6
6
6
6
7
7
7
7
4
4
4
4
        </DataArray>
      </PointData>

    </Piece>
  </UnstructuredGrid>
</VTKFile>
