<?xml version="1.0" ?> 
<!-- 
# vtk DataFile Version 3.0
-->
<VTKFile type="UnstructuredGrid" version="0.1" compressor="vtkZLibDataCompressor" byte_order="LittleEndian">
  <UnstructuredGrid>
    <FieldData>
      <DataArray type="Float64" Name="TIME" NumberOfTuples="1" format="ascii">
3.000000000000000e+00 
      </DataArray>
    </FieldData>

    <Piece NumberOfPoints="8" NumberOfCells="0" >
      <Points>
        <DataArray type="Float64" NumberOfComponents="3" format="ascii">
-7.201038651482240e-01 1.650000000000000e+00 -1.559838809332288e-02
-7.500000000000000e-01 1.650000000000000e+00 1.000000000000000e-01
-4.391092074068540e-01 1.650000000000000e+00 -1.102111064693249e+00
-7.201038651482240e-01 1.650000000000000e+00 -1.559838809332288e-02
-7.500000000000000e-01 1.650000000000000e+00 1.000000000000000e-01
-9.843636878510712e-01 1.650000000000000e+00 1.006206259690326e+00
-9.843636878510711e-01 1.650000000000000e+00 1.006206259690325e+00
-9.959109669912055e-01 1.650000000000000e+00 1.050855739032206e+00
        </DataArray>
      </Points>

      <Cells>
        <DataArray type="Int32" Name="connectivity" format="ascii">

        </DataArray>
        <DataArray type="Int32" Name="offsets" format="ascii">

        </DataArray>
        <DataArray type="UInt8" Name="types" format="ascii">

        </DataArray>
      </Cells>

  <PointData>
        <DataArray type="Float64" Name="displacement" NumberOfComponents="3" format="ascii">
9.961193955792715e-01 -3.036887991505925e-01 -1.071268903143949e-01
9.961012180649746e-01 -2.648233482862616e-01 -1.137324268423165e-01
9.974815969634689e-01 -6.729160003829068e-01 -4.814527675119296e-02
9.961193955792715e-01 -3.036887991505925e-01 -1.071268903143949e-01
9.961012180649746e-01 -2.648233482862616e-01 -1.137324268423165e-01
9.961011683367647e-01 3.729461750598673e-02 -1.655432751989655e-01
9.961011683367645e-01 3.729461750598650e-02 -1.655432751989654e-01
9.961016130400724e-01 5.218764349550620e-02 -1.680993754855633e-01
        </DataArray>
        <DataArray type="Float64" Name="force" NumberOfComponents="3" format="ascii">
7.959673073422522e-04 9.917467689470254e-02 -1.573031842319874e-02
1.125372254172336e-04 1.303641318134777e-02 -1.986666307083130e-03
-2.821895138971852e-02 1.372165628817945e+00 -3.114081011741402e-01
7.959673073422541e-04 9.917467689470277e-02 -1.573031842319879e-02
1.125372254172336e-04 1.303641318134777e-02 -1.986666307083130e-03
-0.000000000000000e+00 0.000000000000000e+00 -0.000000000000000e+00
-0.000000000000000e+00 0.000000000000000e+00 -0.000000000000000e+00
-0.000000000000000e+00 0.000000000000000e+00 -0.000000000000000e+00
        </DataArray>
        <DataArray type="Float64" Name="gap" format="ascii">
5.518536105828875e-02
8.375967846329435e-02
-9.073414040678845e-02
5.518536105828870e-02
8.375967846329435e-02
2.990649119113832e-01
2.990649119113826e-01
3.092836407890789e-01
        </DataArray>
        <DataArray type="Float64" Name="surface_normal" NumberOfComponents="3" format="ascii">
7.926572248795455e-03 9.876225247009912e-01 -1.566490285818102e-01
8.533691766924145e-03 9.885505122721163e-01 -1.506487995018996e-01
-2.005124791195111e-02 9.750055138374633e-01 -2.212740279466113e-01
7.926572248795455e-03 9.876225247009911e-01 -1.566490285818103e-01
8.533691766924145e-03 9.885505122721163e-01 -1.506487995018996e-01
-1.601531390102381e-03 9.939323793430755e-01 -1.099811819840979e-01
-1.601531390102371e-03 9.939323793430754e-01 -1.099811819840979e-01
-2.622943376850670e-03 9.942457477149671e-01 -1.070911449128634e-01
        </DataArray>
        <DataArray type="Int32" Name="uid_0_pair_beam_id" format="ascii">
16
16
16
16
17
17
17
17
        </DataArray>
        <DataArray type="Int32" Name="uid_1_pair_solid_id" format="ascii">
10
10
11
11
10
10
6
6
        </DataArray>
      </PointData>

    </Piece>
  </UnstructuredGrid>
</VTKFile>
