<?xml version="1.0" ?> 
<!-- 
# vtk DataFile Version 3.0
-->
<VTKFile type="UnstructuredGrid" version="0.1" compressor="vtkZLibDataCompressor" byte_order="LittleEndian">
  <UnstructuredGrid>
    <FieldData>
      <DataArray type="Float64" Name="TIME" NumberOfTuples="1" format="ascii">
2.500000100000000e-01 
      </DataArray>
    </FieldData>

    <Piece NumberOfPoints="16" NumberOfCells="2" >
      <Points>
        <DataArray type="Float64" NumberOfComponents="3" format="ascii">
-4.499383490771692e-01 1.650000000000000e+00 -1.060238383567991e+00
-4.589115272750698e-01 1.650000000000000e+00 -1.025542094536078e+00
-4.949554774324996e-01 1.650000000000000e+00 -8.861721539272378e-01
-5.511075564229051e-01 1.650000000000000e+00 -6.690507818308846e-01
-6.145210637566295e-01 1.650000000000000e+00 -4.238518868071321e-01
-6.706731427470928e-01 1.650000000000000e+00 -2.067305147107938e-01
-7.067170929045882e-01 1.650000000000000e+00 -6.736057410197055e-02
-7.156902711025088e-01 1.650000000000000e+00 -3.266428507006187e-02
-7.156902711025088e-01 1.650000000000000e+00 -3.266428507006187e-02
-7.168487474325114e-01 1.650000000000000e+00 -2.818484326072535e-02
-7.215021781541862e-01 1.650000000000000e+00 -1.019157780361123e-02
-7.287516557591249e-01 1.650000000000000e+00 1.783973560210586e-02
-7.369386153433796e-01 1.650000000000000e+00 4.949597932783328e-02
-7.441880929483201e-01 1.650000000000000e+00 7.752729273355000e-02
-7.488415236699968e-01 1.650000000000000e+00 9.552055819066363e-02
-7.500000000000000e-01 1.650000000000000e+00 1.000000000000000e-01
        </DataArray>
      </Points>

      <Cells>
        <DataArray type="Int32" Name="connectivity" format="ascii">
0 1 2 3 4 5 6 7 8 9 10 11 12 13 14 15 
        </DataArray>
        <DataArray type="Int32" Name="offsets" format="ascii">
8 16 
        </DataArray>
        <DataArray type="UInt8" Name="types" format="ascii">
4 4 
        </DataArray>
      </Cells>

  <PointData>
        <DataArray type="Float64" Name="displacement" NumberOfComponents="3" format="ascii">
3.034590856630381e-04 -3.610496110090944e-01 -7.977114221081605e-03
3.206628008260437e-04 -3.564302581932977e-01 -8.256255961283765e-03
3.956378253284210e-04 -3.374955507876287e-01 -9.409204296460194e-03
5.321316414510502e-04 -3.070144512457962e-01 -1.129623135902091e-02
7.172849479014642e-04 -2.716642222637597e-01 -1.353741522979712e-02
9.108624437430546e-04 -2.400531402629382e-01 -1.559652592818883e-02
1.050733709641150e-03 -2.198337992318227e-01 -1.694510953470890e-02
1.087527914181763e-03 -2.148266488972179e-01 -1.728330848103998e-02
1.087527914181763e-03 -2.148266488972179e-01 -1.728330848103998e-02
1.092336533776717e-03 -2.141812087006141e-01 -1.732703259119833e-02
1.111787193513458e-03 -2.115910581268960e-01 -1.750279910877076e-02
1.142522178318561e-03 -2.075643493210610e-01 -1.777702475012578e-02
1.177870884386700e-03 -2.030303669042532e-01 -1.808725305839712e-02
1.209742475214659e-03 -1.990285787286792e-01 -1.836238665609130e-02
1.230485298651662e-03 -1.964667594616520e-01 -1.853918539432736e-02
1.235683988899727e-03 -1.958298717505365e-01 -1.858322110508863e-02
        </DataArray>
        <DataArray type="Float64" Name="gap" format="ascii">
-1.157582369124432e-02
-9.076001426262637e-03
1.403836705852146e-03
1.889716275413239e-02
3.984049783666455e-02
5.891726489207194e-02
7.119840278818951e-02
7.424223683316111e-02
7.424223683316111e-02
7.475611036724028e-02
7.681709880539217e-02
8.001727411396709e-02
8.361466926738831e-02
8.678431189217745e-02
8.881058900447475e-02
8.931398411376623e-02
        </DataArray>
        <DataArray type="Float64" Name="lambda" format="ascii">
-1.392298044511177e-01
-1.355064402073297e-01
-1.205502282319073e-01
-9.725027379925338e-02
-7.093723503282855e-02
-4.763728060017459e-02
-3.268106862475226e-02
-2.895770438096421e-02
-2.895770438096421e-02
-2.847700186405600e-02
-2.654608985296476e-02
-2.353796440343093e-02
-2.014083666240312e-02
-1.713271121286930e-02
-1.520179920177805e-02
-1.472109668486985e-02
        </DataArray>
        <DataArray type="Float64" Name="lambda_times_normal" NumberOfComponents="3" format="ascii">
1.183786241422529e-03 -1.389426751874629e-01 8.858335587585526e-03
1.042455635501828e-03 -1.352331221061153e-01 8.538811939792191e-03
5.786215655798926e-04 -1.203271899998130e-01 7.306850935779159e-03
1.390864498601892e-04 -9.709192941844884e-02 5.545597424278379e-03
-5.109500151330563e-05 -7.083677999293751e-02 3.773500183615515e-03
-5.588195886038508e-05 -4.757766175798003e-02 2.381907183264963e-03
-2.460532118770535e-05 -3.264331525422614e-02 1.570226177065794e-03
-1.629095165724228e-05 -2.892491403327920e-02 1.377579684669958e-03
-1.629095165724228e-05 -2.892491403327920e-02 1.377579684669958e-03
-1.656596359733684e-05 -2.844483865867580e-02 1.352965046186158e-03
-1.742499446636988e-05 -2.651641556019632e-02 1.254706615199271e-03
-1.801873751020358e-05 -2.351207250883339e-02 1.103580500752672e-03
-1.768719217618219e-05 -2.011908024563884e-02 9.357343075786509e-04
-1.659451585510248e-05 -1.711449928629480e-02 7.895772951622875e-04
-1.553623244506355e-05 -1.518580564487696e-02 6.969680858433732e-04
-1.523243842094854e-05 -1.470564858481175e-02 6.740588091034398e-04
        </DataArray>
        <DataArray type="Float64" Name="surface_normal" NumberOfComponents="3" format="ascii">
-8.502391036813857e-03 9.979377313299637e-01 -6.362384564502929e-02
-7.693033880211404e-03 9.979829881089326e-01 -6.301406727774343e-02
-4.799837993394545e-03 9.981498315236261e-01 -6.061250188363538e-02
-1.430190830591337e-03 9.983717847300728e-01 -5.702397749260583e-02
7.202846500805922e-04 9.985838884212989e-01 -5.319491493951242e-02
1.173071975485105e-03 9.987484835103215e-01 -5.000090587152938e-02
7.528921856940007e-04 9.988447938786946e-01 -4.804696551068478e-02
5.625774558273129e-04 9.988676468530233e-01 -4.757213025406570e-02
5.625774558273129e-04 9.988676468530233e-01 -4.757213025406570e-02
5.817313099328265e-04 9.988705550698862e-01 -4.751079669991123e-02
6.564053147896582e-04 9.988821595597394e-01 -4.726521390340058e-02
7.655180881987032e-04 9.988999943175303e-01 -4.688512914021622e-02
8.781756424845471e-04 9.989197858495673e-01 -4.645955494616492e-02
9.685866789511658e-04 9.989370084893031e-01 -4.608595133321301e-02
1.021999582999780e-03 9.989479168426840e-01 -4.584773661277236e-02
1.034735301793395e-03 9.989506148632271e-01 -4.578862726961291e-02
        </DataArray>
        <DataArray type="Int32" Name="uid_0_pair_beam_id" format="ascii">
16
16
16
16
16
16
16
16
16
16
16
16
16
16
16
16
        </DataArray>
        <DataArray type="Int32" Name="uid_1_pair_solid_id" format="ascii">
7
7
7
7
7
7
7
7
6
6
6
6
6
6
6
6
        </DataArray>
  </PointData>
  <CellData>
        <DataArray type="Int32" Name="uid_0_pair_beam_id" format="ascii">
16
16
        </DataArray>
        <DataArray type="Int32" Name="uid_1_pair_solid_id" format="ascii">
7
6
        </DataArray>
      </CellData>

    </Piece>
  </UnstructuredGrid>
</VTKFile>
