<?xml version="1.0" ?> 
<!-- 
# vtk DataFile Version 3.0
-->
<VTKFile type="UnstructuredGrid" version="0.1" compressor="vtkZLibDataCompressor" byte_order="LittleEndian">
  <UnstructuredGrid>
    <FieldData>
      <DataArray type="Float64" Name="TIME" NumberOfTuples="1" format="ascii">
2.500000100000000e-01 
      </DataArray>
    </FieldData>

    <Piece NumberOfPoints="12" NumberOfCells="0" >
      <Points>
        <DataArray type="Float64" NumberOfComponents="3" format="ascii">
-4.589115272750698e-01 1.650000000000000e+00 -1.025542094536078e+00
-4.949554774324996e-01 1.650000000000000e+00 -8.861721539272378e-01
-5.511075564229051e-01 1.650000000000000e+00 -6.690507818308846e-01
-6.145210637566295e-01 1.650000000000000e+00 -4.238518868071321e-01
-6.706731427470928e-01 1.650000000000000e+00 -2.067305147107938e-01
-7.067170929045882e-01 1.650000000000000e+00 -6.736057410197055e-02
-7.168487474325114e-01 1.650000000000000e+00 -2.818484326072535e-02
-7.215021781541862e-01 1.650000000000000e+00 -1.019157780361123e-02
-7.287516557591249e-01 1.650000000000000e+00 1.783973560210586e-02
-7.369386153433796e-01 1.650000000000000e+00 4.949597932783328e-02
-7.441880929483201e-01 1.650000000000000e+00 7.752729273355000e-02
-7.488415236699968e-01 1.650000000000000e+00 9.552055819066363e-02
        </DataArray>
      </Points>

      <Cells>
        <DataArray type="Int32" Name="connectivity" format="ascii">

        </DataArray>
        <DataArray type="Int32" Name="offsets" format="ascii">

        </DataArray>
        <DataArray type="UInt8" Name="types" format="ascii">

        </DataArray>
      </Cells>

  <PointData>
        <DataArray type="Float64" Name="displacement" NumberOfComponents="3" format="ascii">
3.206628008260437e-04 -3.564302581932977e-01 -8.256255961283765e-03
3.956378253284210e-04 -3.374955507876287e-01 -9.409204296460194e-03
5.321316414510502e-04 -3.070144512457962e-01 -1.129623135902091e-02
7.172849479014642e-04 -2.716642222637597e-01 -1.353741522979712e-02
9.108624437430546e-04 -2.400531402629382e-01 -1.559652592818883e-02
1.050733709641150e-03 -2.198337992318227e-01 -1.694510953470890e-02
1.092336533776717e-03 -2.141812087006141e-01 -1.732703259119833e-02
1.111787193513458e-03 -2.115910581268960e-01 -1.750279910877076e-02
1.142522178318561e-03 -2.075643493210610e-01 -1.777702475012578e-02
1.177870884386700e-03 -2.030303669042532e-01 -1.808725305839712e-02
1.209742475214659e-03 -1.990285787286792e-01 -1.836238665609130e-02
1.230485298651662e-03 -1.964667594616520e-01 -1.853918539432736e-02
        </DataArray>
        <DataArray type="Float64" Name="force" NumberOfComponents="3" format="ascii">
-4.544736804796557e-03 5.895684442890915e-01 -3.722619128374581e-02
-2.333010074959984e-03 4.851608776106482e-01 -2.946132301916394e-02
-4.703661810018564e-04 3.283480173127158e-01 -1.875424589853001e-02
1.303414750098699e-04 1.807020279043295e-01 -9.626060579612275e-03
9.899502339880616e-05 8.428394127627155e-02 -4.219554255966799e-03
3.122740810261436e-05 4.142868607524487e-02 -1.992824774388339e-03
1.853552915579988e-05 3.182671102661776e-02 -1.513822175994230e-03
1.763915033482489e-05 2.684230639554593e-02 -1.270127152941928e-03
1.528392589191426e-05 1.994350456500235e-02 -9.360834841905022e-04
1.178858869171496e-05 1.340945241669437e-02 -6.236708894714161e-04
8.458396852068164e-06 8.723437800290368e-03 -4.024557369543063e-04
6.397866521126306e-06 6.253559727252893e-03 -2.870135213590750e-04
        </DataArray>
        <DataArray type="Float64" Name="gap" format="ascii">
-9.076001426262637e-03
1.403836705852146e-03
1.889716275413239e-02
3.984049783666455e-02
5.891726489207194e-02
7.119840278818951e-02
7.475611036724028e-02
7.681709880539217e-02
8.001727411396709e-02
8.361466926738831e-02
8.678431189217745e-02
8.881058900447475e-02
        </DataArray>
        <DataArray type="Float64" Name="surface_normal" NumberOfComponents="3" format="ascii">
-7.693033880211404e-03 9.979829881089326e-01 -6.301406727774343e-02
-4.799837993394545e-03 9.981498315236261e-01 -6.061250188363538e-02
-1.430190830591337e-03 9.983717847300728e-01 -5.702397749260583e-02
7.202846500805922e-04 9.985838884212989e-01 -5.319491493951242e-02
1.173071975485105e-03 9.987484835103215e-01 -5.000090587152938e-02
7.528921856940007e-04 9.988447938786946e-01 -4.804696551068478e-02
5.817313099328265e-04 9.988705550698862e-01 -4.751079669991123e-02
6.564053147896582e-04 9.988821595597394e-01 -4.726521390340058e-02
7.655180881987032e-04 9.988999943175303e-01 -4.688512914021622e-02
8.781756424845471e-04 9.989197858495673e-01 -4.645955494616492e-02
9.685866789511658e-04 9.989370084893031e-01 -4.608595133321301e-02
1.021999582999780e-03 9.989479168426840e-01 -4.584773661277236e-02
        </DataArray>
        <DataArray type="Int32" Name="uid_0_pair_beam_id" format="ascii">
16
16
16
16
16
16
16
16
16
16
16
16
        </DataArray>
        <DataArray type="Int32" Name="uid_1_pair_solid_id" format="ascii">
7
7
7
7
7
7
6
6
6
6
6
6
        </DataArray>
      </PointData>

    </Piece>
  </UnstructuredGrid>
</VTKFile>
