<?xml version="1.0" ?> 
<!-- 
# vtk DataFile Version 3.0
-->
<VTKFile type="UnstructuredGrid" version="0.1" compressor="vtkZLibDataCompressor" byte_order="LittleEndian">
  <UnstructuredGrid>
    <FieldData>
      <DataArray type="Float64" Name="TIME" NumberOfTuples="1" format="ascii">
2.500000100000000e-01 
      </DataArray>
    </FieldData>

    <Piece NumberOfPoints="4" NumberOfCells="0" >
      <Points>
        <DataArray type="Float64" NumberOfComponents="3" format="ascii">
-4.499383490771692e-01 1.650000000000000e+00 -1.060238383567991e+00
-7.156902711025088e-01 1.650000000000000e+00 -3.266428507006187e-02
-7.156902711025088e-01 1.650000000000000e+00 -3.266428507006187e-02
-7.500000000000000e-01 1.650000000000000e+00 1.000000000000000e-01
        </DataArray>
      </Points>

      <Cells>
        <DataArray type="Int32" Name="connectivity" format="ascii">

        </DataArray>
        <DataArray type="Int32" Name="offsets" format="ascii">

        </DataArray>
        <DataArray type="UInt8" Name="types" format="ascii">

        </DataArray>
      </Cells>

  <PointData>
        <DataArray type="Float64" Name="displacement" NumberOfComponents="3" format="ascii">
3.034590856630381e-04 -3.610496110090944e-01 -7.977114221081605e-03
1.087527914181763e-03 -2.148266488972179e-01 -1.728330848103998e-02
1.087527914181763e-03 -2.148266488972179e-01 -1.728330848103998e-02
1.235683988899727e-03 -1.958298717505365e-01 -1.858322110508863e-02
        </DataArray>
        <DataArray type="Float64" Name="force" NumberOfComponents="3" format="ascii">
-5.235417314368661e-03 6.144883779921420e-01 -3.917690701997267e-02
1.866244842078306e-05 3.313555448319561e-02 -1.578115898419141e-03
1.866244842078306e-05 3.313555448319561e-02 -1.578115898419141e-03
5.907869606411352e-06 5.703555262517541e-03 -2.614323092066085e-04
        </DataArray>
        <DataArray type="Float64" Name="gap" format="ascii">
-1.157582369124432e-02
7.424223683316111e-02
7.424223683316111e-02
8.931398411376623e-02
        </DataArray>
        <DataArray type="Float64" Name="surface_normal" NumberOfComponents="3" format="ascii">
-8.502391036813857e-03 9.979377313299637e-01 -6.362384564502929e-02
5.625774558273129e-04 9.988676468530233e-01 -4.757213025406570e-02
5.625774558273129e-04 9.988676468530233e-01 -4.757213025406570e-02
1.034735301793395e-03 9.989506148632271e-01 -4.578862726961291e-02
        </DataArray>
        <DataArray type="Int32" Name="uid_0_pair_beam_id" format="ascii">
16
16
16
16
        </DataArray>
        <DataArray type="Int32" Name="uid_1_pair_solid_id" format="ascii">
7
7
6
6
        </DataArray>
      </PointData>

    </Piece>
  </UnstructuredGrid>
</VTKFile>
