<?xml version="1.0" ?> 
<!-- 
# vtk DataFile Version 3.0
-->
<VTKFile type="UnstructuredGrid" version="0.1" compressor="vtkZLibDataCompressor" byte_order="LittleEndian">
  <UnstructuredGrid>
    <FieldData>
      <DataArray type="Float64" Name="TIME" NumberOfTuples="1" format="ascii">
3.000000000000000e+00 
      </DataArray>
    </FieldData>

    <Piece NumberOfPoints="32" NumberOfCells="0" >
      <Points>
        <DataArray type="Float64" NumberOfComponents="3" format="ascii">
-1.000000000000000e+00 1.000000000000000e+00 0.000000000000000e+00
-1.000000000000000e+00 1.000000000000000e+00 1.000000000000000e+00
0.000000000000000e+00 1.000000000000000e+00 1.000000000000000e+00
0.000000000000000e+00 1.000000000000000e+00 0.000000000000000e+00
1.000000000000000e+00 1.000000000000000e+00 0.000000000000000e+00
1.000000000000000e+00 1.000000000000000e+00 1.000000000000000e+00
2.000000000000000e+00 1.000000000000000e+00 1.000000000000000e+00
2.000000000000000e+00 1.000000000000000e+00 0.000000000000000e+00
-2.000000000000000e+00 1.000000000000000e+00 -1.000000000000000e+00
-2.000000000000000e+00 1.000000000000000e+00 0.000000000000000e+00
-1.000000000000000e+00 1.000000000000000e+00 0.000000000000000e+00
-1.000000000000000e+00 1.000000000000000e+00 -1.000000000000000e+00
-1.000000000000000e+00 1.000000000000000e+00 -1.000000000000000e+00
-1.000000000000000e+00 1.000000000000000e+00 0.000000000000000e+00
0.000000000000000e+00 1.000000000000000e+00 0.000000000000000e+00
0.000000000000000e+00 1.000000000000000e+00 -1.000000000000000e+00
0.000000000000000e+00 1.000000000000000e+00 -1.000000000000000e+00
0.000000000000000e+00 1.000000000000000e+00 0.000000000000000e+00
1.000000000000000e+00 1.000000000000000e+00 0.000000000000000e+00
1.000000000000000e+00 1.000000000000000e+00 -1.000000000000000e+00
0.000000000000000e+00 1.000000000000000e+00 0.000000000000000e+00
0.000000000000000e+00 1.000000000000000e+00 1.000000000000000e+00
1.000000000000000e+00 1.000000000000000e+00 1.000000000000000e+00
1.000000000000000e+00 1.000000000000000e+00 0.000000000000000e+00
-2.000000000000000e+00 1.000000000000000e+00 0.000000000000000e+00
-2.000000000000000e+00 1.000000000000000e+00 1.000000000000000e+00
-1.000000000000000e+00 1.000000000000000e+00 1.000000000000000e+00
-1.000000000000000e+00 1.000000000000000e+00 0.000000000000000e+00
1.000000000000000e+00 1.000000000000000e+00 -1.000000000000000e+00
1.000000000000000e+00 1.000000000000000e+00 0.000000000000000e+00
2.000000000000000e+00 1.000000000000000e+00 0.000000000000000e+00
2.000000000000000e+00 1.000000000000000e+00 -1.000000000000000e+00
        </DataArray>
      </Points>

      <Cells>
        <DataArray type="Int32" Name="connectivity" format="ascii">

        </DataArray>
        <DataArray type="Int32" Name="offsets" format="ascii">

        </DataArray>
        <DataArray type="UInt8" Name="types" format="ascii">

        </DataArray>
      </Cells>

  <PointData>
        <DataArray type="Int32" Name="coupling_id" format="ascii">
1
1
1
1
1
1
1
1
1
1
1
1
1
1
1
1
1
1
1
1
1
1
1
1
1
1
1
1
1
1
1
1
        </DataArray>
        <DataArray type="Float64" Name="displacement" NumberOfComponents="3" format="ascii">
2.492348675422507e-02 -2.018929901530164e-02 -3.541671407361840e-02
1.913713872754619e-02 2.177784639183056e-03 -2.916450188813258e-02
1.269395756508083e-02 -3.070822944892027e-03 -4.141688584423531e-02
1.669727322856751e-02 -1.124903005873440e-01 -4.867217831193315e-02
-2.567347127975572e-03 -7.701269856790349e-02 -5.921458826171565e-02
6.826576371644855e-03 5.559436521349159e-03 -4.919587462449360e-02
1.388116839073916e-03 1.305414753027878e-02 -5.099212599795122e-02
-1.105809393625257e-02 -2.642284411800599e-02 -5.592535448598177e-02
1.019542846936039e-02 -8.929836361111221e-04 -1.027758260980449e-02
2.157583045777911e-02 9.361703798981269e-03 -1.757354510010763e-02
2.492348675422507e-02 -2.018929901530164e-02 -3.541671407361840e-02
2.279613925191115e-02 -3.053410849664462e-02 -4.051878418553390e-02
2.279613925191115e-02 -3.053410849664462e-02 -4.051878418553390e-02
2.492348675422507e-02 -2.018929901530164e-02 -3.541671407361840e-02
1.669727322856751e-02 -1.124903005873440e-01 -4.867217831193315e-02
6.960721202764621e-03 -3.274665804249574e-01 -7.914273471726396e-02
6.960721202764621e-03 -3.274665804249574e-01 -7.914273471726396e-02
1.669727322856751e-02 -1.124903005873440e-01 -4.867217831193315e-02
-2.567347127975572e-03 -7.701269856790349e-02 -5.921458826171565e-02
7.101710143476492e-03 -3.220594474773073e-01 -8.395159510827099e-02
1.669727322856751e-02 -1.124903005873440e-01 -4.867217831193315e-02
1.269395756508083e-02 -3.070822944892027e-03 -4.141688584423531e-02
6.826576371644855e-03 5.559436521349159e-03 -4.919587462449360e-02
-2.567347127975572e-03 -7.701269856790349e-02 -5.921458826171565e-02
2.157583045777911e-02 9.361703798981269e-03 -1.757354510010763e-02
2.295857730570106e-02 2.062741542128510e-02 -2.147069085697462e-02
1.913713872754619e-02 2.177784639183056e-03 -2.916450188813258e-02
2.492348675422507e-02 -2.018929901530164e-02 -3.541671407361840e-02
7.101710143476492e-03 -3.220594474773073e-01 -8.395159510827099e-02
-2.567347127975572e-03 -7.701269856790349e-02 -5.921458826171565e-02
-1.105809393625257e-02 -2.642284411800599e-02 -5.592535448598177e-02
-2.761196339887806e-02 -2.982257633766583e-02 -6.554510390484802e-02
        </DataArray>
        <DataArray type="Float64" Name="normal_averaged" NumberOfComponents="3" format="ascii">
6.082557248924807e-02 9.980182772936590e-01 -1.611731736836074e-02
1.167503976576899e-02 9.996863976494723e-01 -2.215400192040214e-02
-2.777653698018754e-03 9.941463105598305e-01 -1.080064712885818e-01
2.609339898915177e-02 9.873637292340035e-01 -1.563073917711968e-01
-4.359678430477236e-02 9.865822862532413e-01 -1.573363049318586e-01
-8.473197438910889e-03 9.966454939710717e-01 -8.140002624274750e-02
-7.600418040929322e-03 9.992041333751214e-01 -3.915780243675363e-02
-5.087801749060988e-02 9.984933406133742e-01 -2.055422309331642e-02
2.894008227139428e-02 9.995243378065303e-01 -1.065691186704447e-02
2.924236153505566e-02 9.995117945600480e-01 -1.100258275158147e-02
6.082557248924807e-02 9.980182772936590e-01 -1.611731736836074e-02
1.600925150579585e-01 9.870461906460604e-01 -1.049781660721449e-02
1.600925150579585e-01 9.870461906460604e-01 -1.049781660721449e-02
6.082557248924807e-02 9.980182772936590e-01 -1.611731736836074e-02
2.609339898915177e-02 9.873637292340035e-01 -1.563073917711968e-01
1.362146160374740e-01 9.695421452605801e-01 -2.035524672935109e-01
1.362146160374740e-01 9.695421452605801e-01 -2.035524672935109e-01
2.609339898915179e-02 9.873637292340036e-01 -1.563073917711969e-01
-4.359678430477236e-02 9.865822862532413e-01 -1.573363049318586e-01
-1.437126641855902e-01 9.621752123206828e-01 -2.314422842704613e-01
2.609339898915178e-02 9.873637292340035e-01 -1.563073917711968e-01
-2.777653698018754e-03 9.941463105598305e-01 -1.080064712885818e-01
-8.473197438910889e-03 9.966454939710717e-01 -8.140002624274750e-02
-4.359678430477236e-02 9.865822862532413e-01 -1.573363049318586e-01
2.924236153505566e-02 9.995117945600480e-01 -1.100258275158147e-02
1.842854440478127e-02 9.997659516902118e-01 -1.133272218339835e-02
1.167503976576899e-02 9.996863976494723e-01 -2.215400192040214e-02
6.082557248924807e-02 9.980182772936590e-01 -1.611731736836074e-02
-1.437126641855902e-01 9.621752123206828e-01 -2.314422842704613e-01
-4.359678430477236e-02 9.865822862532413e-01 -1.573363049318586e-01
-5.087801749060988e-02 9.984933406133742e-01 -2.055422309331642e-02
-2.897847945342543e-01 9.570906104084974e-01 1.528504049690384e-03
        </DataArray>
        <DataArray type="Float64" Name="normal_element" NumberOfComponents="3" format="ascii">
9.235835508907941e-02 9.954915934071539e-01 -2.159679839526273e-02
5.007589785997055e-03 9.997411514800647e-01 -2.219355946776518e-02
3.920127658102770e-03 9.941453648950834e-01 -1.079797483640586e-01
9.071171939678593e-02 9.900912813111959e-01 -1.071943964749698e-01
-5.052200718582000e-02 9.954401208813902e-01 -8.091039815474330e-02
-7.657488839655861e-03 9.966514357244461e-01 -8.140809869460568e-02
-7.600418040929322e-03 9.992041333751214e-01 -3.915780243675363e-02
-5.079123308320620e-02 9.979640696859157e-01 -3.857416567875840e-02
2.894008227139428e-02 9.995243378065303e-01 -1.065691186704447e-02
2.924855148181785e-02 9.995153220769906e-01 -1.066035503842092e-02
2.925417535267176e-02 9.995184270765659e-01 -1.034925885378904e-02
2.894937375381322e-02 9.995273073115666e-01 -1.034870512437454e-02
2.884573589828398e-01 9.574355545667856e-01 -1.046474557916531e-02
9.252270733943060e-02 9.956558058482742e-01 -1.044341453768022e-02
8.800657792393050e-02 9.749595461524734e-01 -2.042271421929073e-01
2.759256784011561e-01 9.403970628009177e-01 -1.987923144245481e-01
-6.274036134410499e-03 9.789170264038317e-01 -2.041619256552604e-01
-3.757972707916279e-02 9.783038909053985e-01 -2.037382172102565e-01
-3.765656803815978e-02 9.718084490356418e-01 -2.327451852703460e-01
-6.376449882270013e-03 9.725453059368389e-01 -2.326262426879635e-01
-3.709925630298030e-02 9.934511013727128e-01 -1.080673603041635e-01
-9.475310445845219e-03 9.941026578367778e-01 -1.080283489358654e-01
-9.288900399414112e-03 9.966388889690690e-01 -8.139189962071942e-02
-3.690227462772851e-02 9.960238343584374e-01 -8.108479214510991e-02
2.923616816194942e-02 9.995081499297425e-01 -1.134480917556316e-02
1.842854440478127e-02 9.997659516902118e-01 -1.133272218339835e-02
1.834197067967070e-02 9.995871983094539e-01 -2.211345941825377e-02
2.904075871180200e-02 9.993350757063183e-01 -2.204633294881090e-02
-2.783226239043872e-01 9.335524852392090e-01 -2.258678249035783e-01
-4.878748068800874e-02 9.713162996012750e-01 -2.327325242784158e-01
-5.094826623756822e-02 9.986980952241274e-01 -2.527600262248685e-03
-2.897847945342543e-01 9.570906104084974e-01 1.528504049690384e-03
        </DataArray>
        <DataArray type="Int32" Name="uid_0_face_id" format="ascii">
2
2
2
2
6
6
6
6
1
1
1
1
3
3
3
3
5
5
5
5
4
4
4
4
0
0
0
0
7
7
7
7
        </DataArray>
      </PointData>

    </Piece>
  </UnstructuredGrid>
</VTKFile>
