<?xml version="1.0" ?> 
<!-- 
# vtk DataFile Version 3.0
-->
<VTKFile type="UnstructuredGrid" version="0.1" compressor="vtkZLibDataCompressor" byte_order="LittleEndian">
  <UnstructuredGrid>
    <FieldData>
      <DataArray type="Float64" Name="TIME" NumberOfTuples="1" format="ascii">
2.500000100000000e-01 
      </DataArray>
    </FieldData>

    <Piece NumberOfPoints="24" NumberOfCells="0" >
      <Points>
        <DataArray type="Float64" NumberOfComponents="3" format="ascii">
0.000000000000000e+00 1.000000000000000e+00 0.000000000000000e+00
0.000000000000000e+00 1.000000000000000e+00 1.000000000000000e+00
1.000000000000000e+00 1.000000000000000e+00 1.000000000000000e+00
1.000000000000000e+00 1.000000000000000e+00 0.000000000000000e+00
-1.000000000000000e+00 1.000000000000000e+00 -1.000000000000000e+00
-1.000000000000000e+00 1.000000000000000e+00 0.000000000000000e+00
0.000000000000000e+00 1.000000000000000e+00 0.000000000000000e+00
0.000000000000000e+00 1.000000000000000e+00 -1.000000000000000e+00
0.000000000000000e+00 1.000000000000000e+00 -1.000000000000000e+00
0.000000000000000e+00 1.000000000000000e+00 0.000000000000000e+00
1.000000000000000e+00 1.000000000000000e+00 0.000000000000000e+00
1.000000000000000e+00 1.000000000000000e+00 -1.000000000000000e+00
-2.000000000000000e+00 1.000000000000000e+00 -1.000000000000000e+00
-2.000000000000000e+00 1.000000000000000e+00 0.000000000000000e+00
-1.000000000000000e+00 1.000000000000000e+00 0.000000000000000e+00
-1.000000000000000e+00 1.000000000000000e+00 -1.000000000000000e+00
-2.000000000000000e+00 1.000000000000000e+00 0.000000000000000e+00
-2.000000000000000e+00 1.000000000000000e+00 1.000000000000000e+00
-1.000000000000000e+00 1.000000000000000e+00 1.000000000000000e+00
-1.000000000000000e+00 1.000000000000000e+00 0.000000000000000e+00
-1.000000000000000e+00 1.000000000000000e+00 0.000000000000000e+00
-1.000000000000000e+00 1.000000000000000e+00 1.000000000000000e+00
0.000000000000000e+00 1.000000000000000e+00 1.000000000000000e+00
0.000000000000000e+00 1.000000000000000e+00 0.000000000000000e+00
        </DataArray>
      </Points>

      <Cells>
        <DataArray type="Int32" Name="connectivity" format="ascii">

        </DataArray>
        <DataArray type="Int32" Name="offsets" format="ascii">

        </DataArray>
        <DataArray type="UInt8" Name="types" format="ascii">

        </DataArray>
      </Cells>

  <PointData>
        <DataArray type="Int32" Name="coupling_id" format="ascii">
1
1
1
1
1
1
1
1
1
1
1
1
1
1
1
1
1
1
1
1
1
1
1
1
        </DataArray>
        <DataArray type="Float64" Name="displacement" NumberOfComponents="3" format="ascii">
-8.393365343994746e-03 -2.664686613526102e-02 -2.772037051726797e-02
-6.979550392616022e-03 2.791012238680723e-03 -2.248630404205976e-02
-9.366723647262765e-03 4.635198030189969e-03 -1.598475266973420e-02
-8.676522003404630e-03 -5.914717076199949e-03 -1.710852836419815e-02
-4.323002503066053e-03 -1.032886823912434e-01 -4.473873439914677e-02
-2.239501425820967e-03 -4.336628509969620e-02 -2.725122776993652e-02
-8.393365343994746e-03 -2.664686613526102e-02 -2.772037051726797e-02
-4.485753142806514e-03 -9.501761393478447e-02 -4.252350865878096e-02
-4.485753142806514e-03 -9.501761393478447e-02 -4.252350865878096e-02
-8.393365343994746e-03 -2.664686613526102e-02 -2.772037051726797e-02
-8.676522003404630e-03 -5.914717076199949e-03 -1.710852836419815e-02
-3.750477537327379e-03 -1.070040855409138e-02 -1.752477798192853e-02
1.262750101107324e-03 -1.857739815949422e-02 -2.529546203996236e-02
3.405094536223396e-03 -9.875942045025288e-03 -2.381116006606762e-02
-2.239501425820967e-03 -4.336628509969620e-02 -2.725122776993652e-02
-4.323002503066053e-03 -1.032886823912434e-01 -4.473873439914677e-02
3.405094536223396e-03 -9.875942045025288e-03 -2.381116006606762e-02
-9.434419935483440e-04 1.538421306420679e-03 -2.142127972644148e-02
-3.747958615835323e-03 -7.320863235643071e-03 -2.017083471252146e-02
-2.239501425820967e-03 -4.336628509969620e-02 -2.725122776993652e-02
-2.239501425820967e-03 -4.336628509969620e-02 -2.725122776993652e-02
-3.747958615835323e-03 -7.320863235643071e-03 -2.017083471252146e-02
-6.979550392616022e-03 2.791012238680723e-03 -2.248630404205976e-02
-8.393365343994746e-03 -2.664686613526102e-02 -2.772037051726797e-02
        </DataArray>
        <DataArray type="Float64" Name="normal_averaged" NumberOfComponents="3" format="ascii">
-1.851051469387556e-02 9.986628268100222e-01 -4.826923651337105e-02
-5.932453969721670e-03 9.995541361558252e-01 -2.926320016128334e-02
-3.102168330659622e-03 9.999396451299718e-01 -1.053957537068466e-02
-1.493327933850907e-02 9.998588304082840e-01 -7.701715573594657e-03
3.777221642222282e-02 9.975534010922232e-01 -5.882577356814663e-02
8.320789967241006e-03 9.988468473104383e-01 -4.728361314788707e-02
-1.851051469387556e-02 9.986628268100222e-01 -4.826923651337105e-02
-4.513202562889850e-02 9.967097743784143e-01 -6.732552206379844e-02
-4.513202562889850e-02 9.967097743784143e-01 -6.732552206379844e-02
-1.851051469387556e-02 9.986628268100222e-01 -4.826923651337105e-02
-1.493327933850907e-02 9.998588304082840e-01 -7.701715573594657e-03
-4.612073212018110e-02 9.989233311702588e-01 -5.005648051192674e-03
8.470481565198175e-02 9.963668905494233e-01 -8.838191117943209e-03
3.362514894846236e-02 9.993845382234945e-01 -9.994704498199374e-03
8.320789967241013e-03 9.988468473104384e-01 -4.728361314788707e-02
3.777221642222282e-02 9.975534010922232e-01 -5.882577356814663e-02
3.362514894846236e-02 9.993845382234945e-01 -9.994704498199374e-03
8.897505907246995e-03 9.998960304247945e-01 -1.134736662706699e-02
-6.489064007169607e-04 9.993598359716704e-01 -3.577005964712677e-02
8.320789967241013e-03 9.988468473104384e-01 -4.728361314788707e-02
8.320789967241010e-03 9.988468473104384e-01 -4.728361314788707e-02
-6.489064007169607e-04 9.993598359716704e-01 -3.577005964712677e-02
-5.932453969721670e-03 9.995541361558252e-01 -2.926320016128334e-02
-1.851051469387556e-02 9.986628268100222e-01 -4.826923651337105e-02
        </DataArray>
        <DataArray type="Float64" Name="normal_element" NumberOfComponents="3" format="ascii">
-2.041448295416284e-02 9.993640133946583e-01 -2.923726419204658e-02
-1.657050437312633e-03 9.995701775443593e-01 -2.926968308312141e-02
-1.779811288747708e-03 9.999428824288399e-01 -1.053869781708221e-02
-2.062047656563203e-02 9.997317164129755e-01 -1.054946179538977e-02
-8.127626886780308e-03 9.982383379237958e-01 -5.877212247593872e-02
-1.681923731054518e-02 9.981311458677089e-01 -5.874801192471089e-02
-1.681420493309427e-02 9.975927158175201e-01 -6.727596792534825e-02
-8.104417210025449e-03 9.977032487061981e-01 -6.724987689791061e-02
-8.209771126135058e-02 9.943487778616195e-01 -6.730879415612388e-02
-1.997266845368536e-02 9.975339257936738e-01 -6.728416905558104e-02
-2.068149042842298e-02 9.997741835271401e-01 -4.884455578629434e-03
-8.382817326580910e-02 9.964667628396897e-01 -5.179567810820104e-03
8.470481565198175e-02 9.963668905494233e-01 -8.838191117943209e-03
3.362982325701716e-02 9.993960078741722e-01 -8.755251730775225e-03
3.339979142423407e-02 9.977093540254627e-01 -5.882600464855730e-02
8.359246356214427e-02 9.947663522666450e-01 -5.875546301174620e-02
3.362042297834424e-02 9.993715331218453e-01 -1.123414190979387e-02
8.897505907246995e-03 9.998960304247945e-01 -1.134736662706699e-02
8.923000601239978e-03 9.993207735054235e-01 -3.575432422508557e-02
3.351654880116281e-02 9.988003966013010e-01 -3.569886140401132e-02
-1.682667856278276e-02 9.992176918822646e-01 -3.578920393113932e-02
-1.022075394780780e-02 9.993073339146459e-01 -3.578251770265683e-02
-1.020774906058159e-02 9.995198235426836e-01 -2.925618232644403e-02
-1.682717158122262e-02 9.994306476683819e-01 -2.924426093671957e-02
        </DataArray>
        <DataArray type="Int32" Name="uid_0_face_id" format="ascii">
4
4
4
4
3
3
3
3
5
5
5
5
1
1
1
1
0
0
0
0
2
2
2
2
        </DataArray>
      </PointData>

    </Piece>
  </UnstructuredGrid>
</VTKFile>
