<?xml version="1.0" ?> 
<!-- 
# vtk DataFile Version 3.0
-->
<VTKFile type="UnstructuredGrid" version="0.1" compressor="vtkZLibDataCompressor" byte_order="LittleEndian">
  <UnstructuredGrid>
    <FieldData>
      <DataArray type="Float64" Name="TIME" NumberOfTuples="1" format="ascii">
2.500000100000000e-01 
      </DataArray>
    </FieldData>

    <Piece NumberOfPoints="19" NumberOfCells="0" >
      <Points>
        <DataArray type="Float64" NumberOfComponents="3" format="ascii">
-2.000000000000000e+00 -1.000000000000000e+00 1.000000000000000e+00
-2.000000000000000e+00 -1.000000000000000e+00 0.000000000000000e+00
-2.000000000000000e+00 0.000000000000000e+00 0.000000000000000e+00
-2.000000000000000e+00 0.000000000000000e+00 1.000000000000000e+00
-1.000000000000000e+00 -1.000000000000000e+00 1.000000000000000e+00
-1.000000000000000e+00 -1.000000000000000e+00 0.000000000000000e+00
-1.000000000000000e+00 0.000000000000000e+00 0.000000000000000e+00
-1.000000000000000e+00 0.000000000000000e+00 1.000000000000000e+00
-2.000000000000000e+00 -1.000000000000000e+00 -1.000000000000000e+00
-2.000000000000000e+00 0.000000000000000e+00 -1.000000000000000e+00
-1.000000000000000e+00 -1.000000000000000e+00 -1.000000000000000e+00
-1.000000000000000e+00 0.000000000000000e+00 -1.000000000000000e+00
-2.000000000000000e+00 1.000000000000000e+00 1.000000000000000e+00
-1.000000000000000e+00 1.000000000000000e+00 1.000000000000000e+00
-2.000000000000000e+00 1.000000000000000e+00 -1.000000000000000e+00
0.000000000000000e+00 1.000000000000000e+00 1.000000000000000e+00
-7.500000000000000e-01 1.650000000000000e+00 1.000000000000000e-01
-1.125000000000000e+00 1.650000000000000e+00 1.550000000000000e+00
-1.500000000000000e+00 1.650000000000000e+00 3.000000000000000e+00
        </DataArray>
      </Points>

      <Cells>
        <DataArray type="Int32" Name="connectivity" format="ascii">

        </DataArray>
        <DataArray type="Int32" Name="offsets" format="ascii">

        </DataArray>
        <DataArray type="UInt8" Name="types" format="ascii">

        </DataArray>
      </Cells>

  <PointData>
        <DataArray type="Float64" Name="displacement" NumberOfComponents="3" format="ascii">
0.000000000000000e+00 0.000000000000000e+00 0.000000000000000e+00
0.000000000000000e+00 0.000000000000000e+00 0.000000000000000e+00
-1.198508021549348e-02 -1.123989034046965e-02 -3.398466078395395e-03
-5.909707979040897e-03 -7.476523385751381e-04 -3.202594655939090e-03
0.000000000000000e+00 0.000000000000000e+00 0.000000000000000e+00
0.000000000000000e+00 0.000000000000000e+00 0.000000000000000e+00
-5.717237741601724e-03 -1.732368959809760e-02 -3.078348739761262e-03
-3.477580513263062e-03 -2.654306370322912e-03 -9.048342408888400e-04
0.000000000000000e+00 0.000000000000000e+00 0.000000000000000e+00
-2.548829000747052e-02 -2.428965562858390e-02 -5.735096766363940e-03
0.000000000000000e+00 0.000000000000000e+00 0.000000000000000e+00
-1.194961381715479e-02 -3.832974526669689e-02 -1.325344202552486e-02
-9.434419935485239e-04 1.538421306420397e-03 -2.142127972644134e-02
-3.747958615835420e-03 -7.320863235643684e-03 -2.017083471252103e-02
1.262750101107366e-03 -1.857739815949434e-02 -2.529546203996210e-02
-6.979550392616034e-03 2.791012238680469e-03 -2.248630404205965e-02
1.235683988899735e-03 -1.958298717505363e-01 -1.858322110508863e-02
-1.342457365746715e-01 -1.105687229539286e-03 -3.472168729915720e-02
5.171211950285495e-03 2.179538643594512e-01 -4.721761334643519e-02
        </DataArray>
        <DataArray type="Float64" Name="force_beam" NumberOfComponents="3" format="ascii">
0.000000000000000e+00 0.000000000000000e+00 0.000000000000000e+00
0.000000000000000e+00 0.000000000000000e+00 0.000000000000000e+00
0.000000000000000e+00 0.000000000000000e+00 0.000000000000000e+00
0.000000000000000e+00 0.000000000000000e+00 0.000000000000000e+00
0.000000000000000e+00 0.000000000000000e+00 0.000000000000000e+00
0.000000000000000e+00 0.000000000000000e+00 0.000000000000000e+00
0.000000000000000e+00 0.000000000000000e+00 0.000000000000000e+00
0.000000000000000e+00 0.000000000000000e+00 0.000000000000000e+00
0.000000000000000e+00 0.000000000000000e+00 0.000000000000000e+00
0.000000000000000e+00 0.000000000000000e+00 0.000000000000000e+00
0.000000000000000e+00 0.000000000000000e+00 0.000000000000000e+00
0.000000000000000e+00 0.000000000000000e+00 0.000000000000000e+00
0.000000000000000e+00 0.000000000000000e+00 0.000000000000000e+00
0.000000000000000e+00 0.000000000000000e+00 0.000000000000000e+00
0.000000000000000e+00 0.000000000000000e+00 0.000000000000000e+00
0.000000000000000e+00 0.000000000000000e+00 0.000000000000000e+00
1.362311688547146e-04 -8.636005450739680e-02 4.690728524746363e-03
0.000000000000000e+00 0.000000000000000e+00 0.000000000000000e+00
-3.179311377168945e-07 -8.239872107255071e-04 3.146361229830770e-05
        </DataArray>
        <DataArray type="Float64" Name="force_solid" NumberOfComponents="3" format="ascii">
0.000000000000000e+00 0.000000000000000e+00 0.000000000000000e+00
0.000000000000000e+00 0.000000000000000e+00 0.000000000000000e+00
0.000000000000000e+00 0.000000000000000e+00 0.000000000000000e+00
0.000000000000000e+00 0.000000000000000e+00 0.000000000000000e+00
0.000000000000000e+00 0.000000000000000e+00 0.000000000000000e+00
0.000000000000000e+00 0.000000000000000e+00 0.000000000000000e+00
0.000000000000000e+00 0.000000000000000e+00 0.000000000000000e+00
0.000000000000000e+00 0.000000000000000e+00 0.000000000000000e+00
0.000000000000000e+00 0.000000000000000e+00 0.000000000000000e+00
0.000000000000000e+00 0.000000000000000e+00 0.000000000000000e+00
0.000000000000000e+00 0.000000000000000e+00 0.000000000000000e+00
0.000000000000000e+00 0.000000000000000e+00 0.000000000000000e+00
0.000000000000000e+00 0.000000000000000e+00 0.000000000000000e+00
3.488310647598479e-06 5.556702427489705e-03 -2.189723544305087e-04
0.000000000000000e+00 0.000000000000000e+00 0.000000000000000e+00
7.386870042583049e-07 7.667447015531197e-04 -3.153138161269263e-05
0.000000000000000e+00 0.000000000000000e+00 0.000000000000000e+00
0.000000000000000e+00 0.000000000000000e+00 0.000000000000000e+00
0.000000000000000e+00 0.000000000000000e+00 0.000000000000000e+00
        </DataArray>
        <DataArray type="Int32" Name="uid_0_node_id" format="ascii">
0
1
2
3
4
5
6
7
8
9
10
11
13
15
16
25
47
48
49
        </DataArray>
      </PointData>

    </Piece>
  </UnstructuredGrid>
</VTKFile>
