<?xml version="1.0" ?> 
<!-- 
# vtk DataFile Version 3.0
-->
<VTKFile type="UnstructuredGrid" version="0.1" compressor="vtkZLibDataCompressor" byte_order="LittleEndian">
  <UnstructuredGrid>
    <FieldData>
      <DataArray type="Float64" Name="TIME" NumberOfTuples="1" format="ascii">
2.500000100000000e-01 
      </DataArray>
    </FieldData>

    <Piece NumberOfPoints="32" NumberOfCells="0" >
      <Points>
        <DataArray type="Float64" NumberOfComponents="3" format="ascii">
1.000000000000000e+00 1.000000000000000e+00 0.000000000000000e+00
1.000000000000000e+00 1.000000000000000e+00 1.000000000000000e+00
2.000000000000000e+00 1.000000000000000e+00 1.000000000000000e+00
2.000000000000000e+00 1.000000000000000e+00 0.000000000000000e+00
-1.000000000000000e+00 1.000000000000000e+00 0.000000000000000e+00
-1.000000000000000e+00 1.000000000000000e+00 1.000000000000000e+00
0.000000000000000e+00 1.000000000000000e+00 1.000000000000000e+00
0.000000000000000e+00 1.000000000000000e+00 0.000000000000000e+00
-1.000000000000000e+00 1.000000000000000e+00 -1.000000000000000e+00
-1.000000000000000e+00 1.000000000000000e+00 0.000000000000000e+00
0.000000000000000e+00 1.000000000000000e+00 0.000000000000000e+00
0.000000000000000e+00 1.000000000000000e+00 -1.000000000000000e+00
0.000000000000000e+00 1.000000000000000e+00 -1.000000000000000e+00
0.000000000000000e+00 1.000000000000000e+00 0.000000000000000e+00
1.000000000000000e+00 1.000000000000000e+00 0.000000000000000e+00
1.000000000000000e+00 1.000000000000000e+00 -1.000000000000000e+00
0.000000000000000e+00 1.000000000000000e+00 0.000000000000000e+00
0.000000000000000e+00 1.000000000000000e+00 1.000000000000000e+00
1.000000000000000e+00 1.000000000000000e+00 1.000000000000000e+00
1.000000000000000e+00 1.000000000000000e+00 0.000000000000000e+00
-2.000000000000000e+00 1.000000000000000e+00 -1.000000000000000e+00
-2.000000000000000e+00 1.000000000000000e+00 0.000000000000000e+00
-1.000000000000000e+00 1.000000000000000e+00 0.000000000000000e+00
-1.000000000000000e+00 1.000000000000000e+00 -1.000000000000000e+00
-2.000000000000000e+00 1.000000000000000e+00 0.000000000000000e+00
-2.000000000000000e+00 1.000000000000000e+00 1.000000000000000e+00
-1.000000000000000e+00 1.000000000000000e+00 1.000000000000000e+00
-1.000000000000000e+00 1.000000000000000e+00 0.000000000000000e+00
1.000000000000000e+00 1.000000000000000e+00 -1.000000000000000e+00
1.000000000000000e+00 1.000000000000000e+00 0.000000000000000e+00
2.000000000000000e+00 1.000000000000000e+00 0.000000000000000e+00
2.000000000000000e+00 1.000000000000000e+00 -1.000000000000000e+00
        </DataArray>
      </Points>

      <Cells>
        <DataArray type="Int32" Name="connectivity" format="ascii">

        </DataArray>
        <DataArray type="Int32" Name="offsets" format="ascii">

        </DataArray>
        <DataArray type="UInt8" Name="types" format="ascii">

        </DataArray>
      </Cells>

  <PointData>
        <DataArray type="Int32" Name="coupling_id" format="ascii">
1
1
1
1
1
1
1
1
1
1
1
1
1
1
1
1
1
1
1
1
1
1
1
1
1
1
1
1
1
1
1
1
        </DataArray>
        <DataArray type="Float64" Name="displacement" NumberOfComponents="3" format="ascii">
-8.676522003404852e-03 -5.914717076199949e-03 -1.710852836419808e-02
-9.366723647262765e-03 4.635198030189747e-03 -1.598475266973398e-02
-1.031585874510155e-02 9.120867657740339e-03 -9.812706350838418e-03
-6.756375197900066e-03 3.386087578879149e-03 -8.334701891479628e-03
-2.239501425820967e-03 -4.336628509969676e-02 -2.725122776993626e-02
-3.747958615835323e-03 -7.320863235643738e-03 -2.017083471252101e-02
-6.979550392616034e-03 2.791012238680501e-03 -2.248630404205965e-02
-8.393365343994857e-03 -2.664686613526146e-02 -2.772037051726779e-02
-4.323002503066276e-03 -1.032886823912433e-01 -4.473873439914655e-02
-2.239501425820967e-03 -4.336628509969676e-02 -2.725122776993626e-02
-8.393365343994857e-03 -2.664686613526146e-02 -2.772037051726779e-02
-4.485753142806569e-03 -9.501761393478481e-02 -4.252350865878096e-02
-4.485753142806569e-03 -9.501761393478481e-02 -4.252350865878096e-02
-8.393365343994857e-03 -2.664686613526146e-02 -2.772037051726779e-02
-8.676522003404852e-03 -5.914717076199949e-03 -1.710852836419808e-02
-3.750477537327490e-03 -1.070040855409127e-02 -1.752477798192831e-02
-8.393365343994857e-03 -2.664686613526146e-02 -2.772037051726779e-02
-6.979550392616034e-03 2.791012238680501e-03 -2.248630404205965e-02
-9.366723647262765e-03 4.635198030189747e-03 -1.598475266973398e-02
-8.676522003404852e-03 -5.914717076199949e-03 -1.710852836419808e-02
1.262750101107324e-03 -1.857739815949433e-02 -2.529546203996214e-02
3.405094536223174e-03 -9.875942045025510e-03 -2.381116006606744e-02
-2.239501425820967e-03 -4.336628509969676e-02 -2.725122776993626e-02
-4.323002503066276e-03 -1.032886823912433e-01 -4.473873439914655e-02
3.405094536223174e-03 -9.875942045025510e-03 -2.381116006606744e-02
-9.434419935483440e-04 1.538421306420457e-03 -2.142127972644137e-02
-3.747958615835323e-03 -7.320863235643738e-03 -2.017083471252101e-02
-2.239501425820967e-03 -4.336628509969676e-02 -2.725122776993626e-02
-3.750477537327490e-03 -1.070040855409127e-02 -1.752477798192831e-02
-8.676522003404852e-03 -5.914717076199949e-03 -1.710852836419808e-02
-6.756375197900066e-03 3.386087578879149e-03 -8.334701891479628e-03
-5.239161133927528e-04 -2.271230141496106e-03 -6.245314280386438e-03
        </DataArray>
        <DataArray type="Float64" Name="normal_averaged" NumberOfComponents="3" format="ascii">
-1.493327933850941e-02 9.998588304082840e-01 -7.701715573594490e-03
-3.102168330659734e-03 9.999396451299718e-01 -1.053957537068444e-02
-4.454233629352186e-03 9.999734965403175e-01 -5.758994678483875e-03
-9.232067832525916e-03 9.999408447744200e-01 -5.751162956756492e-03
8.320789967241117e-03 9.988468473104384e-01 -4.728361314788668e-02
-6.489064007169607e-04 9.993598359716704e-01 -3.577005964712665e-02
-5.932453969721896e-03 9.995541361558252e-01 -2.926320016128357e-02
-1.851051469387585e-02 9.986628268100222e-01 -4.826923651337110e-02
3.777221642222293e-02 9.975534010922233e-01 -5.882577356814599e-02
8.320789967241117e-03 9.988468473104384e-01 -4.728361314788668e-02
-1.851051469387585e-02 9.986628268100222e-01 -4.826923651337110e-02
-4.513202562889851e-02 9.967097743784143e-01 -6.732552206379831e-02
-4.513202562889851e-02 9.967097743784143e-01 -6.732552206379831e-02
-1.851051469387585e-02 9.986628268100222e-01 -4.826923651337110e-02
-1.493327933850941e-02 9.998588304082840e-01 -7.701715573594490e-03
-4.612073212018143e-02 9.989233311702587e-01 -5.005648051192570e-03
-1.851051469387585e-02 9.986628268100222e-01 -4.826923651337110e-02
-5.932453969721896e-03 9.995541361558252e-01 -2.926320016128357e-02
-3.102168330659734e-03 9.999396451299718e-01 -1.053957537068444e-02
-1.493327933850941e-02 9.998588304082840e-01 -7.701715573594490e-03
8.470481565198155e-02 9.963668905494233e-01 -8.838191117943079e-03
3.362514894846269e-02 9.993845382234945e-01 -9.994704498199320e-03
8.320789967241119e-03 9.988468473104384e-01 -4.728361314788668e-02
3.777221642222293e-02 9.975534010922233e-01 -5.882577356814599e-02
3.362514894846269e-02 9.993845382234945e-01 -9.994704498199320e-03
8.897505907247446e-03 9.998960304247945e-01 -1.134736662706699e-02
-6.489064007169607e-04 9.993598359716704e-01 -3.577005964712665e-02
8.320789967241119e-03 9.988468473104384e-01 -4.728361314788668e-02
-4.612073212018143e-02 9.989233311702587e-01 -5.005648051192570e-03
-1.493327933850941e-02 9.998588304082840e-01 -7.701715573594490e-03
-9.232067832525916e-03 9.999408447744200e-01 -5.751162956756492e-03
-8.337317457251974e-03 9.999488786633051e-01 -5.720943769694313e-03
        </DataArray>
        <DataArray type="Float64" Name="normal_element" NumberOfComponents="3" format="ascii">
-9.189743503882740e-03 9.999021881181455e-01 -1.054337758394635e-02
-4.424519947998001e-03 9.999346592972460e-01 -1.054043449437017e-02
-4.454233629352186e-03 9.999734965403175e-01 -5.758994678483875e-03
-9.231850456847516e-03 9.999407045619589e-01 -5.775837365758841e-03
-1.682667856278288e-02 9.992176918822646e-01 -3.578920393113921e-02
-1.022075394780826e-02 9.993073339146459e-01 -3.578251770265672e-02
-1.020774906058204e-02 9.995198235426836e-01 -2.925618232644426e-02
-1.682717158122273e-02 9.994306476683817e-01 -2.924426093671979e-02
-8.127626886779878e-03 9.982383379237960e-01 -5.877212247593806e-02
-1.681923731054530e-02 9.981311458677089e-01 -5.874801192471022e-02
-1.681420493309439e-02 9.975927158175201e-01 -6.727596792534814e-02
-8.104417210025021e-03 9.977032487061981e-01 -6.724987689791048e-02
-8.209771126135101e-02 9.943487778616195e-01 -6.730879415612377e-02
-1.997266845368582e-02 9.975339257936738e-01 -6.728416905558093e-02
-2.068149042842343e-02 9.997741835271401e-01 -4.884455578629328e-03
-8.382817326580956e-02 9.964667628396897e-01 -5.179567810820007e-03
-2.041448295416329e-02 9.993640133946583e-01 -2.923726419204679e-02
-1.657050437312628e-03 9.995701775443593e-01 -2.926968308312163e-02
-1.779811288747709e-03 9.999428824288399e-01 -1.053869781708199e-02
-2.062047656563247e-02 9.997317164129755e-01 -1.054946179538955e-02
8.470481565198155e-02 9.963668905494233e-01 -8.838191117943079e-03
3.362982325701749e-02 9.993960078741722e-01 -8.755251730775111e-03
3.339979142423440e-02 9.977093540254625e-01 -5.882600464855663e-02
8.359246356214407e-02 9.947663522666450e-01 -5.875546301174556e-02
3.362042297834456e-02 9.993715331218453e-01 -1.123414190979387e-02
8.897505907247446e-03 9.998960304247945e-01 -1.134736662706699e-02
8.923000601240436e-03 9.993207735054235e-01 -3.575432422508545e-02
3.351654880116315e-02 9.988003966013010e-01 -3.569886140401119e-02
-8.347434438901211e-03 9.999535207997804e-01 -4.824580646152952e-03
-9.240188353716436e-03 9.999456486570910e-01 -4.828938903865307e-03
-9.232285202582966e-03 9.999409843780234e-01 -5.726488544252296e-03
-8.337317457251974e-03 9.999488786633051e-01 -5.720943769694313e-03
        </DataArray>
        <DataArray type="Int32" Name="uid_0_face_id" format="ascii">
6
6
6
6
2
2
2
2
3
3
3
3
5
5
5
5
4
4
4
4
1
1
1
1
0
0
0
0
7
7
7
7
        </DataArray>
      </PointData>

    </Piece>
  </UnstructuredGrid>
</VTKFile>
