<?xml version="1.0" ?> 
<!-- 
# vtk DataFile Version 3.0
-->
<VTKFile type="UnstructuredGrid" version="0.1" compressor="vtkZLibDataCompressor" byte_order="LittleEndian">
  <UnstructuredGrid>
    <FieldData>
      <DataArray type="Float64" Name="TIME" NumberOfTuples="1" format="ascii">
3.000000000000000e+00 
      </DataArray>
    </FieldData>

    <Piece NumberOfPoints="34" NumberOfCells="0" >
      <Points>
        <DataArray type="Float64" NumberOfComponents="3" format="ascii">
-2.000000000000000e+00 1.000000000000000e+00 0.000000000000000e+00
-1.000000000000000e+00 1.000000000000000e+00 0.000000000000000e+00
-2.000000000000000e+00 1.000000000000000e+00 -1.000000000000000e+00
-1.000000000000000e+00 1.000000000000000e+00 -1.000000000000000e+00
0.000000000000000e+00 -1.000000000000000e+00 1.000000000000000e+00
0.000000000000000e+00 -1.000000000000000e+00 0.000000000000000e+00
0.000000000000000e+00 0.000000000000000e+00 1.000000000000000e+00
0.000000000000000e+00 -1.000000000000000e+00 -1.000000000000000e+00
0.000000000000000e+00 1.000000000000000e+00 0.000000000000000e+00
0.000000000000000e+00 1.000000000000000e+00 1.000000000000000e+00
0.000000000000000e+00 1.000000000000000e+00 -1.000000000000000e+00
1.000000000000000e+00 -1.000000000000000e+00 1.000000000000000e+00
1.000000000000000e+00 -1.000000000000000e+00 0.000000000000000e+00
1.000000000000000e+00 0.000000000000000e+00 0.000000000000000e+00
1.000000000000000e+00 0.000000000000000e+00 1.000000000000000e+00
1.000000000000000e+00 -1.000000000000000e+00 -1.000000000000000e+00
1.000000000000000e+00 0.000000000000000e+00 -1.000000000000000e+00
1.000000000000000e+00 1.000000000000000e+00 0.000000000000000e+00
1.000000000000000e+00 1.000000000000000e+00 1.000000000000000e+00
1.000000000000000e+00 1.000000000000000e+00 -1.000000000000000e+00
2.000000000000000e+00 -1.000000000000000e+00 1.000000000000000e+00
2.000000000000000e+00 -1.000000000000000e+00 0.000000000000000e+00
2.000000000000000e+00 0.000000000000000e+00 0.000000000000000e+00
2.000000000000000e+00 0.000000000000000e+00 1.000000000000000e+00
2.000000000000000e+00 -1.000000000000000e+00 -1.000000000000000e+00
2.000000000000000e+00 0.000000000000000e+00 -1.000000000000000e+00
2.000000000000000e+00 1.000000000000000e+00 0.000000000000000e+00
2.000000000000000e+00 1.000000000000000e+00 1.000000000000000e+00
2.000000000000000e+00 1.000000000000000e+00 -1.000000000000000e+00
0.000000000000000e+00 1.650000000000000e+00 -2.800000000000000e+00
-3.750000000000000e-01 1.650000000000000e+00 -1.350000000000000e+00
-7.500000000000000e-01 1.650000000000000e+00 1.000000000000000e-01
-1.125000000000000e+00 1.650000000000000e+00 1.550000000000000e+00
-1.500000000000000e+00 1.650000000000000e+00 3.000000000000000e+00
        </DataArray>
      </Points>

      <Cells>
        <DataArray type="Int32" Name="connectivity" format="ascii">

        </DataArray>
        <DataArray type="Int32" Name="offsets" format="ascii">

        </DataArray>
        <DataArray type="UInt8" Name="types" format="ascii">

        </DataArray>
      </Cells>

  <PointData>
        <DataArray type="Float64" Name="displacement" NumberOfComponents="3" format="ascii">
2.157583045777901e-02 9.361703798981226e-03 -1.757354510010763e-02
2.492348675422508e-02 -2.018929901530159e-02 -3.541671407361840e-02
1.019542846936045e-02 -8.929836361110885e-04 -1.027758260980444e-02
2.279613925191118e-02 -3.053410849664466e-02 -4.051878418553388e-02
0.000000000000000e+00 0.000000000000000e+00 0.000000000000000e+00
0.000000000000000e+00 0.000000000000000e+00 0.000000000000000e+00
3.673111398328723e-03 -6.151948479025350e-03 1.281999321136597e-02
0.000000000000000e+00 0.000000000000000e+00 0.000000000000000e+00
1.669727322856751e-02 -1.124903005873440e-01 -4.867217831193315e-02
1.269395756508083e-02 -3.070822944892067e-03 -4.141688584423536e-02
6.960721202764621e-03 -3.274665804249574e-01 -7.914273471726403e-02
0.000000000000000e+00 0.000000000000000e+00 0.000000000000000e+00
0.000000000000000e+00 0.000000000000000e+00 0.000000000000000e+00
1.782902096600942e-02 -4.247992165897691e-02 8.835959003814975e-03
1.143750920109434e-02 5.067614185790730e-04 5.193438191376007e-03
0.000000000000000e+00 0.000000000000000e+00 0.000000000000000e+00
3.809662030245759e-02 -1.011055521334002e-01 -1.496554799775962e-02
-2.567347127975539e-03 -7.701269856790352e-02 -5.921458826171565e-02
6.826576371644757e-03 5.559436521349182e-03 -4.919587462449356e-02
7.101710143476471e-03 -3.220594474773072e-01 -8.395159510827088e-02
0.000000000000000e+00 0.000000000000000e+00 0.000000000000000e+00
0.000000000000000e+00 0.000000000000000e+00 0.000000000000000e+00
2.802531279571589e-02 -2.072913236541789e-02 8.827928263402612e-04
1.221438380094396e-02 5.605476806902512e-03 -6.330905401316333e-04
0.000000000000000e+00 0.000000000000000e+00 0.000000000000000e+00
7.154550761508977e-02 -5.567945654499538e-02 -5.792134480139716e-04
-1.105809393625255e-02 -2.642284411800602e-02 -5.592535448598177e-02
1.388116839073949e-03 1.305414753027876e-02 -5.099212599795121e-02
-2.761196339887797e-02 -2.982257633766579e-02 -6.554510390484801e-02
1.000000000000000e+00 -1.000000000000000e+00 0.000000000000000e+00
-2.713026234448006e-01 -1.234411399326429e-02 -7.017264110295053e-02
9.961012180649746e-01 -2.648233482862616e-01 -1.137324268423165e-01
-3.184016411144912e-01 -1.413728548720806e-02 -8.241294256081637e-02
9.961299351571785e-01 7.024551052702174e-01 -2.797602298633158e-01
        </DataArray>
        <DataArray type="Float64" Name="force_beam" NumberOfComponents="3" format="ascii">
0.000000000000000e+00 0.000000000000000e+00 0.000000000000000e+00
0.000000000000000e+00 0.000000000000000e+00 0.000000000000000e+00
0.000000000000000e+00 0.000000000000000e+00 0.000000000000000e+00
0.000000000000000e+00 0.000000000000000e+00 0.000000000000000e+00
0.000000000000000e+00 0.000000000000000e+00 0.000000000000000e+00
0.000000000000000e+00 0.000000000000000e+00 0.000000000000000e+00
0.000000000000000e+00 0.000000000000000e+00 0.000000000000000e+00
0.000000000000000e+00 0.000000000000000e+00 0.000000000000000e+00
0.000000000000000e+00 0.000000000000000e+00 0.000000000000000e+00
0.000000000000000e+00 0.000000000000000e+00 0.000000000000000e+00
0.000000000000000e+00 0.000000000000000e+00 0.000000000000000e+00
0.000000000000000e+00 0.000000000000000e+00 0.000000000000000e+00
0.000000000000000e+00 0.000000000000000e+00 0.000000000000000e+00
0.000000000000000e+00 0.000000000000000e+00 0.000000000000000e+00
0.000000000000000e+00 0.000000000000000e+00 0.000000000000000e+00
0.000000000000000e+00 0.000000000000000e+00 0.000000000000000e+00
0.000000000000000e+00 0.000000000000000e+00 0.000000000000000e+00
0.000000000000000e+00 0.000000000000000e+00 0.000000000000000e+00
0.000000000000000e+00 0.000000000000000e+00 0.000000000000000e+00
0.000000000000000e+00 0.000000000000000e+00 0.000000000000000e+00
0.000000000000000e+00 0.000000000000000e+00 0.000000000000000e+00
0.000000000000000e+00 0.000000000000000e+00 0.000000000000000e+00
0.000000000000000e+00 0.000000000000000e+00 0.000000000000000e+00
0.000000000000000e+00 0.000000000000000e+00 0.000000000000000e+00
0.000000000000000e+00 0.000000000000000e+00 0.000000000000000e+00
0.000000000000000e+00 0.000000000000000e+00 0.000000000000000e+00
0.000000000000000e+00 0.000000000000000e+00 0.000000000000000e+00
0.000000000000000e+00 0.000000000000000e+00 0.000000000000000e+00
0.000000000000000e+00 0.000000000000000e+00 0.000000000000000e+00
1.924315692996575e-04 -4.749404935769067e-02 9.940885036405512e-03
0.000000000000000e+00 0.000000000000000e+00 0.000000000000000e+00
-5.975290824703560e-04 -2.049067481180935e-01 3.962201115043588e-02
0.000000000000000e+00 0.000000000000000e+00 0.000000000000000e+00
-2.341934630626214e-06 -8.956308815474533e-04 1.073309159520397e-04
        </DataArray>
        <DataArray type="Float64" Name="force_solid" NumberOfComponents="3" format="ascii">
0.000000000000000e+00 0.000000000000000e+00 0.000000000000000e+00
-6.495063616393665e-11 3.061180741081556e-08 -3.342194507158547e-09
0.000000000000000e+00 0.000000000000000e+00 0.000000000000000e+00
0.000000000000000e+00 0.000000000000000e+00 0.000000000000000e+00
0.000000000000000e+00 0.000000000000000e+00 0.000000000000000e+00
0.000000000000000e+00 0.000000000000000e+00 0.000000000000000e+00
0.000000000000000e+00 0.000000000000000e+00 0.000000000000000e+00
0.000000000000000e+00 0.000000000000000e+00 0.000000000000000e+00
5.185078237255473e-04 6.131506129489025e-02 -1.107417653284000e-02
2.174582481869135e-05 5.441231331160251e-03 -6.791160650494682e-04
-1.129328651589219e-04 7.827877770465301e-02 -1.608028525850851e-02
0.000000000000000e+00 0.000000000000000e+00 0.000000000000000e+00
0.000000000000000e+00 0.000000000000000e+00 0.000000000000000e+00
0.000000000000000e+00 0.000000000000000e+00 0.000000000000000e+00
0.000000000000000e+00 0.000000000000000e+00 0.000000000000000e+00
0.000000000000000e+00 0.000000000000000e+00 0.000000000000000e+00
0.000000000000000e+00 0.000000000000000e+00 0.000000000000000e+00
2.543919797100327e-04 3.648184966128446e-02 -6.869652530221841e-03
3.498520632716466e-06 5.141130473578782e-04 -6.941421980673921e-05
-2.777666872923707e-04 7.126314998562859e-02 -1.489733844913391e-02
0.000000000000000e+00 0.000000000000000e+00 0.000000000000000e+00
0.000000000000000e+00 0.000000000000000e+00 0.000000000000000e+00
0.000000000000000e+00 0.000000000000000e+00 0.000000000000000e+00
0.000000000000000e+00 0.000000000000000e+00 0.000000000000000e+00
0.000000000000000e+00 0.000000000000000e+00 0.000000000000000e+00
0.000000000000000e+00 0.000000000000000e+00 0.000000000000000e+00
0.000000000000000e+00 0.000000000000000e+00 0.000000000000000e+00
0.000000000000000e+00 0.000000000000000e+00 0.000000000000000e+00
0.000000000000000e+00 0.000000000000000e+00 0.000000000000000e+00
0.000000000000000e+00 0.000000000000000e+00 0.000000000000000e+00
0.000000000000000e+00 0.000000000000000e+00 0.000000000000000e+00
0.000000000000000e+00 0.000000000000000e+00 0.000000000000000e+00
0.000000000000000e+00 0.000000000000000e+00 0.000000000000000e+00
0.000000000000000e+00 0.000000000000000e+00 0.000000000000000e+00
        </DataArray>
        <DataArray type="Int32" Name="uid_0_node_id" format="ascii">
12
14
16
17
18
19
21
22
24
25
26
27
28
29
30
31
32
33
34
35
36
37
38
39
40
41
42
43
44
45
46
47
48
49
        </DataArray>
      </PointData>

    </Piece>
  </UnstructuredGrid>
</VTKFile>
