<?xml version="1.0" ?> 
<!-- 
# vtk DataFile Version 3.0
-->
<VTKFile type="UnstructuredGrid" version="0.1" compressor="vtkZLibDataCompressor" byte_order="LittleEndian">
  <UnstructuredGrid>
    <FieldData>
      <DataArray type="Float64" Name="TIME" NumberOfTuples="1" format="ascii">
2.500000100000000e-01 
      </DataArray>
    </FieldData>

    <Piece NumberOfPoints="16" NumberOfCells="0" >
      <Points>
        <DataArray type="Float64" NumberOfComponents="3" format="ascii">
-1.000000000000000e+00 1.000000000000000e+00 0.000000000000000e+00
-1.000000000000000e+00 1.000000000000000e+00 1.000000000000000e+00
0.000000000000000e+00 1.000000000000000e+00 1.000000000000000e+00
0.000000000000000e+00 1.000000000000000e+00 0.000000000000000e+00
-2.000000000000000e+00 1.000000000000000e+00 0.000000000000000e+00
-2.000000000000000e+00 1.000000000000000e+00 1.000000000000000e+00
-1.000000000000000e+00 1.000000000000000e+00 1.000000000000000e+00
-1.000000000000000e+00 1.000000000000000e+00 0.000000000000000e+00
-2.000000000000000e+00 1.000000000000000e+00 -1.000000000000000e+00
-2.000000000000000e+00 1.000000000000000e+00 0.000000000000000e+00
-1.000000000000000e+00 1.000000000000000e+00 0.000000000000000e+00
-1.000000000000000e+00 1.000000000000000e+00 -1.000000000000000e+00
-1.000000000000000e+00 1.000000000000000e+00 -1.000000000000000e+00
-1.000000000000000e+00 1.000000000000000e+00 0.000000000000000e+00
0.000000000000000e+00 1.000000000000000e+00 0.000000000000000e+00
0.000000000000000e+00 1.000000000000000e+00 -1.000000000000000e+00
        </DataArray>
      </Points>

      <Cells>
        <DataArray type="Int32" Name="connectivity" format="ascii">

        </DataArray>
        <DataArray type="Int32" Name="offsets" format="ascii">

        </DataArray>
        <DataArray type="UInt8" Name="types" format="ascii">

        </DataArray>
      </Cells>

  <PointData>
        <DataArray type="Int32" Name="coupling_id" format="ascii">
1
1
1
1
1
1
1
1
1
1
1
1
1
1
1
1
        </DataArray>
        <DataArray type="Float64" Name="displacement" NumberOfComponents="3" format="ascii">
-2.239501425820745e-03 -4.336628509969542e-02 -2.725122776993685e-02
-3.747958615835101e-03 -7.320863235642072e-03 -2.017083471252201e-02
-6.979550392615927e-03 2.791012238680946e-03 -2.248630404205998e-02
-8.393365343994577e-03 -2.664686613526079e-02 -2.772037051726813e-02
3.405094536223396e-03 -9.875942045025066e-03 -2.381116006606787e-02
-9.434419935483440e-04 1.538421306420901e-03 -2.142127972644192e-02
-3.747958615835101e-03 -7.320863235642072e-03 -2.017083471252201e-02
-2.239501425820745e-03 -4.336628509969542e-02 -2.725122776993685e-02
1.262750101107324e-03 -1.857739815949422e-02 -2.529546203996258e-02
3.405094536223396e-03 -9.875942045025066e-03 -2.381116006606787e-02
-2.239501425820745e-03 -4.336628509969542e-02 -2.725122776993685e-02
-4.323002503066053e-03 -1.032886823912428e-01 -4.473873439914677e-02
-4.323002503066053e-03 -1.032886823912428e-01 -4.473873439914677e-02
-2.239501425820745e-03 -4.336628509969542e-02 -2.725122776993685e-02
-8.393365343994577e-03 -2.664686613526079e-02 -2.772037051726813e-02
-4.485753142806343e-03 -9.501761393478436e-02 -4.252350865878118e-02
        </DataArray>
        <DataArray type="Float64" Name="normal_averaged" NumberOfComponents="3" format="ascii">
8.320789967241008e-03 9.988468473104384e-01 -4.728361314788726e-02
-6.489064007169581e-04 9.993598359716704e-01 -3.577005964712700e-02
-5.932453969721163e-03 9.995541361558251e-01 -2.926320016128334e-02
-1.851051469387522e-02 9.986628268100222e-01 -4.826923651337111e-02
3.362514894846180e-02 9.993845382234945e-01 -9.994704498199489e-03
8.897505907246214e-03 9.998960304247945e-01 -1.134736662706700e-02
-6.489064007169581e-04 9.993598359716704e-01 -3.577005964712700e-02
8.320789967241010e-03 9.988468473104384e-01 -4.728361314788726e-02
8.470481565198110e-02 9.963668905494235e-01 -8.838191117943430e-03
3.362514894846180e-02 9.993845382234945e-01 -9.994704498199489e-03
8.320789967241010e-03 9.988468473104384e-01 -4.728361314788726e-02
3.777221642222276e-02 9.975534010922232e-01 -5.882577356814677e-02
3.777221642222276e-02 9.975534010922232e-01 -5.882577356814677e-02
8.320789967241005e-03 9.988468473104383e-01 -4.728361314788725e-02
-1.851051469387522e-02 9.986628268100222e-01 -4.826923651337111e-02
-4.513202562889817e-02 9.967097743784143e-01 -6.732552206379853e-02
        </DataArray>
        <DataArray type="Float64" Name="normal_element" NumberOfComponents="3" format="ascii">
-1.682667856278220e-02 9.992176918822646e-01 -3.578920393113955e-02
-1.022075394780702e-02 9.993073339146459e-01 -3.578251770265706e-02
-1.020774906058080e-02 9.995198235426839e-01 -2.925618232644405e-02
-1.682717158122206e-02 9.994306476683817e-01 -2.924426093671957e-02
3.362042297834367e-02 9.993715331218453e-01 -1.123414190979387e-02
8.897505907246214e-03 9.998960304247945e-01 -1.134736662706700e-02
8.923000601239196e-03 9.993207735054235e-01 -3.575432422508579e-02
3.351654880116225e-02 9.988003966013010e-01 -3.569886140401154e-02
8.470481565198108e-02 9.963668905494233e-01 -8.838191117943428e-03
3.362982325701659e-02 9.993960078741722e-01 -8.755251730775447e-03
3.339979142423349e-02 9.977093540254627e-01 -5.882600464855743e-02
8.359246356214362e-02 9.947663522666450e-01 -5.875546301174635e-02
-8.127626886779765e-03 9.982383379237958e-01 -5.877212247593884e-02
-1.681923731054461e-02 9.981311458677089e-01 -5.874801192471101e-02
-1.681420493309371e-02 9.975927158175201e-01 -6.727596792534836e-02
-8.104417210024912e-03 9.977032487061981e-01 -6.724987689791070e-02
        </DataArray>
        <DataArray type="Int32" Name="uid_0_face_id" format="ascii">
2
2
2
2
0
0
0
0
1
1
1
1
3
3
3
3
        </DataArray>
      </PointData>

    </Piece>
  </UnstructuredGrid>
</VTKFile>
