<?xml version="1.0" ?> 
<!-- 
# vtk DataFile Version 3.0
-->
<VTKFile type="UnstructuredGrid" version="0.1" compressor="vtkZLibDataCompressor" byte_order="LittleEndian">
  <UnstructuredGrid>
    <FieldData>
      <DataArray type="Float64" Name="TIME" NumberOfTuples="1" format="ascii">
2.500000100000000e-01 
      </DataArray>
    </FieldData>

    <Piece NumberOfPoints="6" NumberOfCells="0" >
      <Points>
        <DataArray type="Float64" NumberOfComponents="3" format="ascii">
-7.577383125368813e-01 1.650000000000000e+00 1.299214751425475e-01
-7.888219871536533e-01 1.650000000000000e+00 2.501116836605281e-01
-8.372465617290866e-01 1.650000000000000e+00 4.373533720186619e-01
-8.919332655908121e-01 1.650000000000000e+00 6.488086269505678e-01
-9.403578401661917e-01 1.650000000000000e+00 8.360503153087154e-01
-9.714415147829023e-01 1.650000000000000e+00 9.562405238267114e-01
        </DataArray>
      </Points>

      <Cells>
        <DataArray type="Int32" Name="connectivity" format="ascii">

        </DataArray>
        <DataArray type="Int32" Name="offsets" format="ascii">

        </DataArray>
        <DataArray type="UInt8" Name="types" format="ascii">

        </DataArray>
      </Cells>

  <PointData>
        <DataArray type="Float64" Name="displacement" NumberOfComponents="3" format="ascii">
1.270548597245402e-03 -1.915765157604501e-01 -1.887742367409004e-02
1.412422569802119e-03 -1.744853027725219e-01 -2.005974468347976e-02
1.639033650917998e-03 -1.478408859938842e-01 -2.190330410070113e-02
1.902586309253329e-03 -1.177263764221008e-01 -2.398742309827029e-02
2.142173982680462e-03 -9.104097212223983e-02 -2.583454306680411e-02
2.298800544265345e-03 -7.390316199683511e-02 -2.702091193012701e-02
        </DataArray>
        <DataArray type="Float64" Name="force" NumberOfComponents="3" format="ascii">
2.989699536858759e-06 2.680809317114508e-03 -1.218230749196439e-04
0.000000000000000e+00 0.000000000000000e+00 -0.000000000000000e+00
0.000000000000000e+00 0.000000000000000e+00 -0.000000000000000e+00
0.000000000000000e+00 0.000000000000000e+00 -0.000000000000000e+00
0.000000000000000e+00 0.000000000000000e+00 -0.000000000000000e+00
-0.000000000000000e+00 0.000000000000000e+00 -0.000000000000000e+00
        </DataArray>
        <DataArray type="Float64" Name="gap" format="ascii">
9.267391300005451e-02
1.061460017896066e-01
1.270555981852649e-01
1.505527615684159e-01
1.712547757808451e-01
1.844911776109881e-01
        </DataArray>
        <DataArray type="Float64" Name="surface_normal" NumberOfComponents="3" format="ascii">
1.114072351609821e-03 9.989684593098872e-01 -4.539577234529263e-02
1.332434886950836e-03 9.990371350544706e-01 -4.385233630523835e-02
1.353828277514540e-03 9.991351886106548e-01 -4.155769518327949e-02
9.142958207264395e-04 9.992338742821272e-01 -3.912580414869588e-02
1.180321023195059e-04 9.993111022447277e-01 -3.711208696436227e-02
-5.928772517649935e-04 9.993556457015731e-01 -3.588790744743981e-02
        </DataArray>
        <DataArray type="Int32" Name="uid_0_pair_beam_id" format="ascii">
17
17
17
17
17
17
        </DataArray>
        <DataArray type="Int32" Name="uid_1_pair_solid_id" format="ascii">
6
6
6
6
6
6
        </DataArray>
      </PointData>

    </Piece>
  </UnstructuredGrid>
</VTKFile>
