<?xml version="1.0" ?> 
<!-- 
# vtk DataFile Version 3.0
-->
<VTKFile type="UnstructuredGrid" version="0.1" compressor="vtkZLibDataCompressor" byte_order="LittleEndian">
  <UnstructuredGrid>
    <FieldData>
      <DataArray type="Float64" Name="TIME" NumberOfTuples="1" format="ascii">
3.000000000000000e+00 
      </DataArray>
    </FieldData>

    <Piece NumberOfPoints="24" NumberOfCells="0" >
      <Points>
        <DataArray type="Float64" NumberOfComponents="3" format="ascii">
-7.211133154032180e-01 1.650000000000000e+00 -1.169518044068581e-02
-7.251681300825833e-01 1.650000000000000e+00 3.983436319501224e-03
-7.314850368914281e-01 1.650000000000000e+00 2.840880931365966e-02
-7.386188282567925e-01 1.650000000000000e+00 5.599280259301825e-02
-7.449357350656388e-01 1.650000000000000e+00 8.041817558717627e-02
-7.489905497450055e-01 1.650000000000000e+00 9.609679234736258e-02
-4.485970602786422e-01 1.650000000000000e+00 -1.065424700255634e+00
-4.867083836547645e-01 1.650000000000000e+00 -9.180609165345037e-01
-5.460811780154783e-01 1.650000000000000e+00 -6.884861116729419e-01
-6.131318945394419e-01 1.650000000000000e+00 -4.292233411135896e-01
-6.725046889002195e-01 1.650000000000000e+00 -1.996485362520438e-01
-7.106160122764138e-01 1.650000000000000e+00 -5.228475253093286e-02
-7.579133468468727e-01 1.650000000000000e+00 1.305982744745134e-01
-7.897001087985921e-01 1.650000000000000e+00 2.535070873542869e-01
-8.392200077043674e-01 1.650000000000000e+00 4.449840297897423e-01
-8.951436801468416e-01 1.650000000000000e+00 6.612222299005472e-01
-9.446635790525617e-01 1.650000000000000e+00 8.526991723360173e-01
-9.764503410042177e-01 1.650000000000000e+00 9.756079852158075e-01
-9.847535845360538e-01 1.650000000000000e+00 1.007713860205592e+00
-9.863197427433368e-01 1.650000000000000e+00 1.013769671940424e+00
-9.887596262461912e-01 1.650000000000000e+00 1.023203888151466e+00
-9.915150285960854e-01 1.650000000000000e+00 1.033858110571064e+00
-9.939549120989397e-01 1.650000000000000e+00 1.043292326782107e+00
-9.955210703062227e-01 1.650000000000000e+00 1.049348138516939e+00
        </DataArray>
      </Points>

      <Cells>
        <DataArray type="Int32" Name="connectivity" format="ascii">

        </DataArray>
        <DataArray type="Int32" Name="offsets" format="ascii">

        </DataArray>
        <DataArray type="UInt8" Name="types" format="ascii">

        </DataArray>
      </Cells>

  <PointData>
        <DataArray type="Float64" Name="displacement" NumberOfComponents="3" format="ascii">
9.961182481358255e-01 -3.023660275214592e-01 -1.073500287246960e-01
9.961140064103071e-01 -2.970594518826208e-01 -1.082463426978365e-01
9.961085828276790e-01 -2.888149976326051e-01 -1.096425857851712e-01
9.961042204602277e-01 -2.795392811372386e-01 -1.112190013797537e-01
9.961019461506592e-01 -2.713584823106550e-01 -1.126143291598475e-01
9.961012847126360e-01 -2.661242740760466e-01 -1.135096025553668e-01
9.974133135857219e-01 -6.611978145490303e-01 -4.993792379015272e-02
9.971477219705787e-01 -6.131286532772071e-01 -5.733732130965397e-02
9.967719381573632e-01 -5.357452280083370e-01 -6.941270714752390e-02
9.964262457047671e-01 -4.462503646283007e-01 -8.365943075146498e-02
9.962128814369362e-01 -3.666932767567606e-01 -9.662190704758980e-02
9.961319383601581e-01 -3.161529620191876e-01 -1.050298036127374e-01
9.961008641467750e-01 -2.546281811431057e-01 -1.154792222903581e-01
9.960997309119994e-01 -2.136708062369557e-01 -1.224979730953040e-01
9.960988266329360e-01 -1.498496930647959e-01 -1.334386965988112e-01
9.960989337240586e-01 -7.775647276099451e-02 -1.458026126789600e-01
9.960998947476081e-01 -1.390413641640853e-02 -1.567572039496798e-01
9.961008821036776e-01 2.708873491437425e-02 -1.637917204861463e-01
9.961011828349965e-01 3.779747567499281e-02 -1.656295786330089e-01
9.961012414413868e-01 3.981738976397486e-02 -1.659762497503853e-01
9.961013339135922e-01 4.296418877627239e-02 -1.665163299284511e-01
9.961014400425620e-01 4.651795076466225e-02 -1.671262646004872e-01
9.961015355069173e-01 4.966479875199403e-02 -1.676663674214749e-01
9.961015975149676e-01 5.168476851880865e-02 -1.680130642807187e-01
        </DataArray>
        <DataArray type="Float64" Name="force" NumberOfComponents="3" format="ascii">
7.642673667386703e-04 9.489472799023684e-02 -1.503119378706832e-02
6.421558207456767e-04 7.868809933666082e-02 -1.239676664421277e-02
4.700187930869835e-04 5.655664980528021e-02 -8.835197389392193e-03
3.049251049585238e-04 3.606331986090200e-02 -5.580247709117631e-03
1.869324178421859e-04 2.183338871466676e-02 -3.349927039860790e-03
1.258989024550213e-04 1.460635394262508e-02 -2.228929284858750e-03
-2.318434968127188e-02 1.335842414020146e+00 -2.995997381344684e-01
-7.181104061738336e-03 1.176633112161211e+00 -2.515892703922276e-01
5.600901725660496e-03 8.935717785091477e-01 -1.772515985229704e-01
6.937951766912352e-03 5.392007869013407e-01 -9.818603115779981e-02
3.124648708642655e-03 2.514224263201568e-01 -4.241539178668023e-02
1.135924452483540e-03 1.237271442659966e-01 -1.986799035384259e-02
3.337979744231656e-05 3.829192525129674e-03 -5.773828875871576e-04
0.000000000000000e+00 0.000000000000000e+00 -0.000000000000000e+00
0.000000000000000e+00 0.000000000000000e+00 -0.000000000000000e+00
0.000000000000000e+00 0.000000000000000e+00 -0.000000000000000e+00
0.000000000000000e+00 0.000000000000000e+00 -0.000000000000000e+00
-0.000000000000000e+00 0.000000000000000e+00 -0.000000000000000e+00
-0.000000000000000e+00 0.000000000000000e+00 -0.000000000000000e+00
-0.000000000000000e+00 0.000000000000000e+00 -0.000000000000000e+00
-0.000000000000000e+00 0.000000000000000e+00 -0.000000000000000e+00
-0.000000000000000e+00 0.000000000000000e+00 -0.000000000000000e+00
-0.000000000000000e+00 0.000000000000000e+00 -0.000000000000000e+00
-0.000000000000000e+00 0.000000000000000e+00 -0.000000000000000e+00
        </DataArray>
        <DataArray type="Float64" Name="gap" format="ascii">
5.616374722045137e-02
6.008478612542656e-02
6.616376780383787e-02
7.298379408536387e-02
7.898111481469622e-02
8.280931712963008e-02
-8.692233098569263e-02
-7.032515156301350e-02
-4.109994635712416e-02
-4.811141247402007e-03
2.858652148048130e-02
4.993657391352296e-02
9.119929329098087e-02
1.209572920883399e-01
1.669230773711262e-01
2.182771423300648e-01
2.632828219201938e-01
2.919529467130815e-01
2.994085961304249e-01
3.007900801713885e-01
3.029453075654001e-01
3.053836962599408e-01
3.075468061169347e-01
3.089372514062930e-01
        </DataArray>
        <DataArray type="Float64" Name="surface_normal" NumberOfComponents="3" format="ascii">
7.954419051968177e-03 9.876549295542293e-01 -1.564431760888794e-01
8.061084949415029e-03 9.877843239422225e-01 -1.556185987709846e-01
8.210719684425207e-03 9.879834693235746e-01 -1.543413373844385e-01
8.355538834965781e-03 9.882048565878051e-01 -1.529096020106423e-01
8.462433389031059e-03 9.883978380393762e-01 -1.516512478689953e-01
8.520511804932965e-03 9.885202235152807e-01 -1.508481639924123e-01
-1.693248246240745e-02 9.756205612360862e-01 -2.188099895595368e-01
-5.968082290740052e-03 9.778779389652514e-01 -2.090911726468692e-01
6.148084548485025e-03 9.808697087550688e-01 -1.945682797969167e-01
1.265792247527998e-02 9.837430395173503e-01 -1.791351701921619e-01
1.225380086482762e-02 9.859925490367618e-01 -1.663386233210849e-01
9.064384297046667e-03 9.873107152074259e-01 -1.585414411878373e-01
8.619430983732183e-03 9.887855296550236e-01 -1.490935335765812e-01
8.651457853375852e-03 9.896876543770718e-01 -1.429807646175559e-01
7.718482003046374e-03 9.909676364374516e-01 -1.338789325067227e-01
5.261843136948567e-03 9.922437527122370e-01 -1.241960072238203e-01
1.886944683955529e-03 9.932327194266375e-01 -1.161258132377391e-01
-8.519116365513570e-04 9.937995202682910e-01 -1.111835768496331e-01
-1.635729572478800e-03 9.939432070755783e-01 -1.098827807123549e-01
-1.773303250644390e-03 9.939865254154164e-01 -1.094880938192322e-01
-1.988278475551184e-03 9.940534533991008e-01 -1.088750592836835e-01
-2.232007882325804e-03 9.941282252785670e-01 -1.081854419286611e-01
-2.448671948310824e-03 9.941937211967606e-01 -1.075771757327149e-01
-2.588165603565785e-03 9.942354114599472e-01 -1.071879097560822e-01
        </DataArray>
        <DataArray type="Int32" Name="uid_0_pair_beam_id" format="ascii">
16
16
16
16
16
16
16
16
16
16
16
16
17
17
17
17
17
17
17
17
17
17
17
17
        </DataArray>
        <DataArray type="Int32" Name="uid_1_pair_solid_id" format="ascii">
10
10
10
10
10
10
11
11
11
11
11
11
10
10
10
10
10
10
6
6
6
6
6
6
        </DataArray>
      </PointData>

    </Piece>
  </UnstructuredGrid>
</VTKFile>
