<?xml version="1.0" ?> 
<!-- 
# vtk DataFile Version 3.0
-->
<VTKFile type="UnstructuredGrid" version="0.1" compressor="vtkZLibDataCompressor" byte_order="LittleEndian">
  <UnstructuredGrid>
    <FieldData>
      <DataArray type="Float64" Name="TIME" NumberOfTuples="1" format="ascii">
1e-08
      </DataArray>
    </FieldData>

    <Piece NumberOfPoints="160" NumberOfCells="20" >
      <Points>
        <DataArray type="Float64" NumberOfComponents="3" format="ascii">
0.000000000000000e+00 1.000000000000000e+00 1.000000000000000e-01
0.000000000000000e+00 1.000000000000000e+00 4.999999999999999e-02
0.000000000000000e+00 2.000000000000000e+00 4.999999999999999e-02
0.000000000000000e+00 2.000000000000000e+00 1.000000000000000e-01
5.000000000000000e-01 1.000000000000000e+00 1.000000000000000e-01
5.000000000000000e-01 1.000000000000000e+00 5.000000000000001e-02
5.000000000000001e-01 2.000000000000000e+00 5.000000000000000e-02
5.000000000000000e-01 2.000000000000000e+00 1.000000000000000e-01
0.000000000000000e+00 1.000000000000000e+00 4.999999999999999e-02
0.000000000000000e+00 1.000000000000000e+00 0.000000000000000e+00
0.000000000000000e+00 2.000000000000000e+00 0.000000000000000e+00
0.000000000000000e+00 2.000000000000000e+00 4.999999999999999e-02
5.000000000000000e-01 1.000000000000000e+00 5.000000000000001e-02
5.000000000000000e-01 1.000000000000000e+00 0.000000000000000e+00
5.000000000000000e-01 2.000000000000000e+00 0.000000000000000e+00
5.000000000000001e-01 2.000000000000000e+00 5.000000000000000e-02
0.000000000000000e+00 1.000000000000000e+00 0.000000000000000e+00
0.000000000000000e+00 1.000000000000000e+00 -5.000000000000002e-02
0.000000000000000e+00 2.000000000000000e+00 -5.000000000000002e-02
0.000000000000000e+00 2.000000000000000e+00 0.000000000000000e+00
5.000000000000000e-01 1.000000000000000e+00 0.000000000000000e+00
5.000000000000002e-01 1.000000000000000e+00 -5.000000000000002e-02
5.000000000000000e-01 2.000000000000000e+00 -5.000000000000001e-02
5.000000000000000e-01 2.000000000000000e+00 0.000000000000000e+00
0.000000000000000e+00 1.000000000000000e+00 -5.000000000000002e-02
0.000000000000000e+00 1.000000000000000e+00 -1.000000000000000e-01
0.000000000000000e+00 2.000000000000000e+00 -1.000000000000000e-01
0.000000000000000e+00 2.000000000000000e+00 -5.000000000000002e-02
5.000000000000002e-01 1.000000000000000e+00 -5.000000000000002e-02
5.000000000000000e-01 1.000000000000000e+00 -1.000000000000000e-01
5.000000000000000e-01 2.000000000000000e+00 -1.000000000000000e-01
5.000000000000000e-01 2.000000000000000e+00 -5.000000000000001e-02
5.000000000000000e-01 1.000000000000000e+00 1.000000000000000e-01
5.000000000000000e-01 1.000000000000000e+00 5.000000000000001e-02
5.000000000000001e-01 2.000000000000000e+00 5.000000000000000e-02
5.000000000000000e-01 2.000000000000000e+00 1.000000000000000e-01
1.000000000000000e+00 1.000000000000000e+00 1.000000000000000e-01
1.000000000000000e+00 1.000000000000000e+00 5.000000000000000e-02
1.000000000000000e+00 2.000000000000000e+00 5.000000000000001e-02
1.000000000000000e+00 2.000000000000000e+00 1.000000000000000e-01
5.000000000000000e-01 1.000000000000000e+00 5.000000000000001e-02
5.000000000000000e-01 1.000000000000000e+00 0.000000000000000e+00
5.000000000000000e-01 2.000000000000000e+00 0.000000000000000e+00
5.000000000000001e-01 2.000000000000000e+00 5.000000000000000e-02
1.000000000000000e+00 1.000000000000000e+00 5.000000000000000e-02
1.000000000000000e+00 1.000000000000000e+00 -6.938893903907228e-18
1.000000000000000e+00 2.000000000000000e+00 0.000000000000000e+00
1.000000000000000e+00 2.000000000000000e+00 5.000000000000001e-02
5.000000000000000e-01 1.000000000000000e+00 0.000000000000000e+00
5.000000000000002e-01 1.000000000000000e+00 -5.000000000000002e-02
5.000000000000000e-01 2.000000000000000e+00 -5.000000000000001e-02
5.000000000000000e-01 2.000000000000000e+00 0.000000000000000e+00
1.000000000000000e+00 1.000000000000000e+00 -6.938893903907228e-18
1.000000000000000e+00 1.000000000000000e+00 -5.000000000000002e-02
1.000000000000000e+00 2.000000000000000e+00 -5.000000000000002e-02
1.000000000000000e+00 2.000000000000000e+00 0.000000000000000e+00
5.000000000000002e-01 1.000000000000000e+00 -5.000000000000002e-02
5.000000000000000e-01 1.000000000000000e+00 -1.000000000000000e-01
5.000000000000000e-01 2.000000000000000e+00 -1.000000000000000e-01
5.000000000000000e-01 2.000000000000000e+00 -5.000000000000001e-02
1.000000000000000e+00 1.000000000000000e+00 -5.000000000000002e-02
1.000000000000000e+00 1.000000000000000e+00 -1.000000000000000e-01
1.000000000000000e+00 2.000000000000000e+00 -1.000000000000000e-01
1.000000000000000e+00 2.000000000000000e+00 -5.000000000000002e-02
1.000000000000000e+00 1.000000000000000e+00 1.000000000000000e-01
1.000000000000000e+00 1.000000000000000e+00 5.000000000000000e-02
1.000000000000000e+00 2.000000000000000e+00 5.000000000000001e-02
1.000000000000000e+00 2.000000000000000e+00 1.000000000000000e-01
1.500000000000000e+00 1.000000000000000e+00 1.000000000000000e-01
1.500000000000000e+00 1.000000000000000e+00 5.000000000000000e-02
1.500000000000000e+00 2.000000000000000e+00 5.000000000000003e-02
1.500000000000000e+00 2.000000000000000e+00 1.000000000000000e-01
1.000000000000000e+00 1.000000000000000e+00 5.000000000000000e-02
1.000000000000000e+00 1.000000000000000e+00 -6.938893903907228e-18
1.000000000000000e+00 2.000000000000000e+00 0.000000000000000e+00
1.000000000000000e+00 2.000000000000000e+00 5.000000000000001e-02
1.500000000000000e+00 1.000000000000000e+00 5.000000000000000e-02
1.500000000000000e+00 1.000000000000000e+00 0.000000000000000e+00
1.500000000000000e+00 2.000000000000000e+00 0.000000000000000e+00
1.500000000000000e+00 2.000000000000000e+00 5.000000000000003e-02
1.000000000000000e+00 1.000000000000000e+00 -6.938893903907228e-18
1.000000000000000e+00 1.000000000000000e+00 -5.000000000000002e-02
1.000000000000000e+00 2.000000000000000e+00 -5.000000000000002e-02
1.000000000000000e+00 2.000000000000000e+00 0.000000000000000e+00
1.500000000000000e+00 1.000000000000000e+00 0.000000000000000e+00
1.500000000000000e+00 1.000000000000000e+00 -5.000000000000002e-02
1.500000000000000e+00 2.000000000000000e+00 -5.000000000000002e-02
1.500000000000000e+00 2.000000000000000e+00 0.000000000000000e+00
1.000000000000000e+00 1.000000000000000e+00 -5.000000000000002e-02
1.000000000000000e+00 1.000000000000000e+00 -1.000000000000000e-01
1.000000000000000e+00 2.000000000000000e+00 -1.000000000000000e-01
1.000000000000000e+00 2.000000000000000e+00 -5.000000000000002e-02
1.500000000000000e+00 1.000000000000000e+00 -5.000000000000002e-02
1.500000000000000e+00 1.000000000000000e+00 -1.000000000000000e-01
1.500000000000000e+00 2.000000000000000e+00 -1.000000000000000e-01
1.500000000000000e+00 2.000000000000000e+00 -5.000000000000002e-02
1.500000000000000e+00 1.000000000000000e+00 1.000000000000000e-01
1.500000000000000e+00 1.000000000000000e+00 5.000000000000000e-02
1.500000000000000e+00 2.000000000000000e+00 5.000000000000003e-02
1.500000000000000e+00 2.000000000000000e+00 1.000000000000000e-01
2.000000000000000e+00 1.000000000000000e+00 1.000000000000000e-01
2.000000000000000e+00 1.000000000000000e+00 5.000000000000001e-02
2.000000000000000e+00 2.000000000000000e+00 5.000000000000000e-02
2.000000000000000e+00 2.000000000000000e+00 1.000000000000000e-01
1.500000000000000e+00 1.000000000000000e+00 5.000000000000000e-02
1.500000000000000e+00 1.000000000000000e+00 0.000000000000000e+00
1.500000000000000e+00 2.000000000000000e+00 0.000000000000000e+00
1.500000000000000e+00 2.000000000000000e+00 5.000000000000003e-02
2.000000000000000e+00 1.000000000000000e+00 5.000000000000001e-02
2.000000000000000e+00 1.000000000000000e+00 0.000000000000000e+00
2.000000000000000e+00 2.000000000000000e+00 3.469446951953614e-18
2.000000000000000e+00 2.000000000000000e+00 5.000000000000000e-02
1.500000000000000e+00 1.000000000000000e+00 0.000000000000000e+00
1.500000000000000e+00 1.000000000000000e+00 -5.000000000000002e-02
1.500000000000000e+00 2.000000000000000e+00 -5.000000000000002e-02
1.500000000000000e+00 2.000000000000000e+00 0.000000000000000e+00
2.000000000000000e+00 1.000000000000000e+00 0.000000000000000e+00
2.000000000000000e+00 1.000000000000000e+00 -5.000000000000000e-02
2.000000000000000e+00 2.000000000000000e+00 -5.000000000000001e-02
2.000000000000000e+00 2.000000000000000e+00 3.469446951953614e-18
1.500000000000000e+00 1.000000000000000e+00 -5.000000000000002e-02
1.500000000000000e+00 1.000000000000000e+00 -1.000000000000000e-01
1.500000000000000e+00 2.000000000000000e+00 -1.000000000000000e-01
1.500000000000000e+00 2.000000000000000e+00 -5.000000000000002e-02
2.000000000000000e+00 1.000000000000000e+00 -5.000000000000000e-02
2.000000000000000e+00 1.000000000000000e+00 -1.000000000000000e-01
2.000000000000000e+00 2.000000000000000e+00 -1.000000000000000e-01
2.000000000000000e+00 2.000000000000000e+00 -5.000000000000001e-02
2.000000000000000e+00 1.000000000000000e+00 1.000000000000000e-01
2.000000000000000e+00 1.000000000000000e+00 5.000000000000001e-02
2.000000000000000e+00 2.000000000000000e+00 5.000000000000000e-02
2.000000000000000e+00 2.000000000000000e+00 1.000000000000000e-01
2.500000000000000e+00 1.000000000000000e+00 1.000000000000000e-01
2.500000000000000e+00 1.000000000000000e+00 5.000000000000000e-02
2.500000000000000e+00 2.000000000000000e+00 5.000000000000000e-02
2.500000000000000e+00 2.000000000000000e+00 1.000000000000000e-01
2.000000000000000e+00 1.000000000000000e+00 5.000000000000001e-02
2.000000000000000e+00 1.000000000000000e+00 0.000000000000000e+00
2.000000000000000e+00 2.000000000000000e+00 3.469446951953614e-18
2.000000000000000e+00 2.000000000000000e+00 5.000000000000000e-02
2.500000000000000e+00 1.000000000000000e+00 5.000000000000000e-02
2.500000000000000e+00 1.000000000000000e+00 0.000000000000000e+00
2.500000000000000e+00 2.000000000000000e+00 0.000000000000000e+00
2.500000000000000e+00 2.000000000000000e+00 5.000000000000000e-02
2.000000000000000e+00 1.000000000000000e+00 0.000000000000000e+00
2.000000000000000e+00 1.000000000000000e+00 -5.000000000000000e-02
2.000000000000000e+00 2.000000000000000e+00 -5.000000000000001e-02
2.000000000000000e+00 2.000000000000000e+00 3.469446951953614e-18
2.500000000000000e+00 1.000000000000000e+00 0.000000000000000e+00
2.500000000000000e+00 1.000000000000000e+00 -5.000000000000002e-02
2.500000000000000e+00 2.000000000000000e+00 -5.000000000000002e-02
2.500000000000000e+00 2.000000000000000e+00 0.000000000000000e+00
2.000000000000000e+00 1.000000000000000e+00 -5.000000000000000e-02
2.000000000000000e+00 1.000000000000000e+00 -1.000000000000000e-01
2.000000000000000e+00 2.000000000000000e+00 -1.000000000000000e-01
2.000000000000000e+00 2.000000000000000e+00 -5.000000000000001e-02
2.500000000000000e+00 1.000000000000000e+00 -5.000000000000002e-02
2.500000000000000e+00 1.000000000000000e+00 -1.000000000000000e-01
2.500000000000000e+00 2.000000000000000e+00 -1.000000000000000e-01
2.500000000000000e+00 2.000000000000000e+00 -5.000000000000002e-02
        </DataArray>
      </Points>

      <Cells>
        <DataArray type="Int32" Name="connectivity" format="ascii">
0 1 2 3 4 5 6 7 8 9 10 11 12 13 14 15 16 17 18 19 20 21 22 23 24 25 26 27 28 29 30 31 32 33 34 35 36 37 38 39 40 41 42 43 44 45 46 47 48 49 50 51 52 53 54 55 56 57 58 59 60 61 62 63 64 65 66 67 68 69 70 71 72 73 74 75 76 77 78 79 80 81 82 83 84 85 86 87 88 89 90 91 92 93 94 95 96 97 98 99 100 101 102 103 104 105 106 107 108 109 110 111 112 113 114 115 116 117 118 119 120 121 122 123 124 125 126 127 128 129 130 131 132 133 134 135 136 137 138 139 140 141 142 143 144 145 146 147 148 149 150 151 152 153 154 155 156 157 158 159 
        </DataArray>
        <DataArray type="Int32" Name="offsets" format="ascii">
8 16 24 32 40 48 56 64 72 80 88 96 104 112 120 128 136 144 152 160 
        </DataArray>
        <DataArray type="UInt8" Name="types" format="ascii">
12 12 12 12 12 12 12 12 12 12 12 12 12 12 12 12 12 12 12 12 
        </DataArray>
      </Cells>

  <PointData>
        <DataArray type="Float64" Name="displacement" NumberOfComponents="3" format="ascii">
-8.704107044991392e-02 -1.802323663203283e-13 4.662420669317502e-01
-7.036334674943703e-02 -1.283910797215127e-13 4.688500943681671e-01
-7.036334674966366e-02 -1.281704419133698e-13 4.688500943691886e-01
-8.704107045015372e-02 -1.806943762018150e-13 4.662420669327678e-01
-1.193666882967049e-01 -2.554655141822722e-13 6.408827968910005e-01
-1.009072521854749e-01 -1.972258607767983e-13 6.440291518022508e-01
-1.009072521857371e-01 -1.967720850418385e-13 6.440291518034004e-01
-1.193666882969779e-01 -2.554484408448715e-13 6.408827968921467e-01
-7.036334674943703e-02 -1.283910797215127e-13 4.688500943681671e-01
-5.370185315397535e-02 -7.626039453867445e-14 4.714541251997070e-01
-5.370185315418960e-02 -7.621067167821237e-14 4.714541252007320e-01
-7.036334674966366e-02 -1.281704419133698e-13 4.688500943691886e-01
-1.009072521854749e-01 -1.972258607767983e-13 6.440291518022508e-01
-8.245599978800555e-02 -1.384872216673128e-13 6.471731406775920e-01
-8.245599978825738e-02 -1.383149966440775e-13 6.471731406787448e-01
-1.009072521857371e-01 -1.967720850418385e-13 6.440291518034004e-01
-5.370185315397535e-02 -7.626039453867445e-14 4.714541251997070e-01
-3.704355168131487e-02 -2.442168601291599e-14 4.740570389745072e-01
-3.704355168151678e-02 -2.416986818644841e-14 4.740570389755360e-01
-5.370185315418960e-02 -7.621067167821237e-14 4.714541252007320e-01
-8.245599978800555e-02 -1.384872216673128e-13 6.471731406775920e-01
-6.400746571004270e-02 -7.983064472106893e-14 6.503160944631102e-01
-6.400746571028414e-02 -8.012883143453412e-14 6.503160944642662e-01
-8.245599978825738e-02 -1.383149966440775e-13 6.471731406787448e-01
-3.704355168131487e-02 -2.442168601291599e-14 4.740570389745072e-01
-2.037750278107522e-02 2.797140215391274e-14 4.766610469186616e-01
-2.037750278126399e-02 2.776182336000447e-14 4.766610469196943e-01
-3.704355168151678e-02 -2.416986818644841e-14 4.740570389755360e-01
-6.400746571004270e-02 -7.983064472106893e-14 6.503160944631102e-01
-4.555465892064673e-02 -2.128903957545942e-14 6.534598298057522e-01
-4.555465892087736e-02 -2.122314918243313e-14 6.534598298069115e-01
-6.400746571028414e-02 -8.012883143453412e-14 6.503160944642662e-01
-1.193666882967049e-01 -2.554655141822722e-13 6.408827968910005e-01
-1.009072521854749e-01 -1.972258607767983e-13 6.440291518022508e-01
-1.009072521857371e-01 -1.967720850418385e-13 6.440291518034004e-01
-1.193666882969779e-01 -2.554484408448715e-13 6.408827968921467e-01
-1.556845432796303e-01 -3.453341618233984e-13 8.314462769688336e-01
-1.358672174952318e-01 -2.813213981976773e-13 8.350239614621847e-01
-1.358672174955262e-01 -2.811293167382337e-13 8.350239614634453e-01
-1.556845432799354e-01 -3.455471076116368e-13 8.314462769700905e-01
-1.009072521854749e-01 -1.972258607767983e-13 6.440291518022508e-01
-8.245599978800555e-02 -1.384872216673128e-13 6.471731406775920e-01
-8.245599978825738e-02 -1.383149966440775e-13 6.471731406787448e-01
-1.009072521857371e-01 -1.967720850418385e-13 6.440291518034004e-01
-1.358672174952318e-01 -2.813213981976773e-13 8.350239614621847e-01
-1.160629295995466e-01 -2.171209858276114e-13 8.385973590166765e-01
-1.160629295998309e-01 -2.170531034493157e-13 8.385973590179405e-01
-1.358672174955262e-01 -2.811293167382337e-13 8.350239614634453e-01
-8.245599978800555e-02 -1.384872216673128e-13 6.471731406775920e-01
-6.400746571004270e-02 -7.983064472106893e-14 6.503160944631102e-01
-6.400746571028414e-02 -8.012883143453412e-14 6.503160944642662e-01
-8.245599978825738e-02 -1.383149966440775e-13 6.471731406787448e-01
-1.160629295995466e-01 -2.171209858276114e-13 8.385973590166765e-01
-9.626110789884003e-02 -1.529185002963239e-13 8.421696797420286e-01
-9.626110789911417e-02 -1.528852341998852e-13 8.421696797432963e-01
-1.160629295998309e-01 -2.170531034493157e-13 8.385973590179405e-01
-6.400746571004270e-02 -7.983064472106893e-14 6.503160944631102e-01
-4.555465892064673e-02 -2.128903957545942e-14 6.534598298057522e-01
-4.555465892087736e-02 -2.122314918243313e-14 6.534598298069115e-01
-6.400746571028414e-02 -8.012883143453412e-14 6.503160944642662e-01
-9.626110789884003e-02 -1.529185002963239e-13 8.421696797420286e-01
-7.645219928188661e-02 -8.857435235366835e-14 8.457437640142333e-01
-7.645219928215027e-02 -8.870872625489979e-14 8.457437640155046e-01
-9.626110789911417e-02 -1.528852341998852e-13 8.421696797432963e-01
-1.556845432796303e-01 -3.453341618233984e-13 8.314462769688336e-01
-1.358672174952318e-01 -2.813213981976773e-13 8.350239614621847e-01
-1.358672174955262e-01 -2.811293167382337e-13 8.350239614634453e-01
-1.556845432799354e-01 -3.455471076116368e-13 8.314462769700905e-01
-1.948866513233009e-01 -4.512449634044144e-13 1.033762018395886e+00
-1.741254585559403e-01 -3.810866887214697e-13 1.037647961000309e+00
-1.741254585562720e-01 -3.807543011882516e-13 1.037647961001693e+00
-1.948866513236445e-01 -4.514706205917993e-13 1.033762018397267e+00
-1.358672174952318e-01 -2.813213981976773e-13 8.350239614621847e-01
-1.160629295995466e-01 -2.171209858276114e-13 8.385973590166765e-01
-1.160629295998309e-01 -2.170531034493157e-13 8.385973590179405e-01
-1.358672174955262e-01 -2.811293167382337e-13 8.350239614634453e-01
-1.741254585559403e-01 -3.810866887214697e-13 1.037647961000309e+00
-1.533715593187230e-01 -3.105956978564089e-13 1.041531293741401e+00
-1.533715593190436e-01 -3.106370881324456e-13 1.041531293742788e+00
-1.741254585562720e-01 -3.807543011882516e-13 1.037647961001693e+00
-1.160629295995466e-01 -2.171209858276114e-13 8.385973590166765e-01
-9.626110789884003e-02 -1.529185002963239e-13 8.421696797420286e-01
-9.626110789911417e-02 -1.528852341998852e-13 8.421696797432963e-01
-1.160629295998309e-01 -2.170531034493157e-13 8.385973590179405e-01
-1.533715593187230e-01 -3.105956978564089e-13 1.041531293741401e+00
-1.326194902506190e-01 -2.403158915341524e-13 1.045413871799905e+00
-1.326194902509283e-01 -2.398105769749218e-13 1.045413871801296e+00
-1.533715593190436e-01 -3.106370881324456e-13 1.041531293742788e+00
-9.626110789884003e-02 -1.529185002963239e-13 8.421696797420286e-01
-7.645219928188661e-02 -8.857435235366835e-14 8.457437640142333e-01
-7.645219928215027e-02 -8.870872625489979e-14 8.457437640155046e-01
-9.626110789911417e-02 -1.528852341998852e-13 8.421696797432963e-01
-1.326194902506190e-01 -2.403158915341524e-13 1.045413871799905e+00
-1.118630470179432e-01 -1.696264758774758e-13 1.049297728074761e+00
-1.118630470182404e-01 -1.698522827857346e-13 1.049297728076155e+00
-1.326194902509283e-01 -2.398105769749218e-13 1.045413871801296e+00
-1.948866513233009e-01 -4.512449634044144e-13 1.033762018395886e+00
-1.741254585559403e-01 -3.810866887214697e-13 1.037647961000309e+00
-1.741254585562720e-01 -3.807543011882516e-13 1.037647961001693e+00
-1.948866513236445e-01 -4.514706205917993e-13 1.033762018397267e+00
-2.358010471223546e-01 -5.668567372042529e-13 1.243871703257455e+00
-2.144766007599664e-01 -4.917617677128285e-13 1.247944665701894e+00
-2.144766007603163e-01 -4.915601450540283e-13 1.247944665703378e+00
-2.358010471227080e-01 -5.671214427242112e-13 1.243871703258937e+00
-1.741254585559403e-01 -3.810866887214697e-13 1.037647961000309e+00
-1.533715593187230e-01 -3.105956978564089e-13 1.041531293741401e+00
-1.533715593190436e-01 -3.106370881324456e-13 1.041531293742788e+00
-1.741254585562720e-01 -3.807543011882516e-13 1.037647961001693e+00
-2.144766007599664e-01 -4.917617677128285e-13 1.247944665701894e+00
-1.931623979836884e-01 -4.163226479387275e-13 1.252013998678037e+00
-1.931623979840352e-01 -4.162704703746166e-13 1.252013998679523e+00
-2.144766007603163e-01 -4.915601450540283e-13 1.247944665703378e+00
-1.533715593187230e-01 -3.105956978564089e-13 1.041531293741401e+00
-1.326194902506190e-01 -2.403158915341524e-13 1.045413871799905e+00
-1.326194902509283e-01 -2.398105769749218e-13 1.045413871801296e+00
-1.533715593190436e-01 -3.106370881324456e-13 1.041531293742788e+00
-1.931623979836884e-01 -4.163226479387275e-13 1.252013998678037e+00
-1.718490066647954e-01 -3.411047863994637e-13 1.256082749437947e+00
-1.718490066651387e-01 -3.412541256453878e-13 1.256082749439434e+00
-1.931623979840352e-01 -4.162704703746166e-13 1.252013998679523e+00
-1.326194902506190e-01 -2.403158915341524e-13 1.045413871799905e+00
-1.118630470179432e-01 -1.696264758774758e-13 1.049297728074761e+00
-1.118630470182404e-01 -1.698522827857346e-13 1.049297728076155e+00
-1.326194902509283e-01 -2.398105769749218e-13 1.045413871801296e+00
-1.718490066647954e-01 -3.411047863994637e-13 1.256082749437947e+00
-1.505276167924040e-01 -2.656845084775338e-13 1.260154089615629e+00
-1.505276167927433e-01 -2.655661849785943e-13 1.260154089617118e+00
-1.718490066651387e-01 -3.412541256453878e-13 1.256082749439434e+00
-2.358010471223546e-01 -5.668567372042529e-13 1.243871703257455e+00
-2.144766007599664e-01 -4.917617677128285e-13 1.247944665701894e+00
-2.144766007603163e-01 -4.915601450540283e-13 1.247944665703378e+00
-2.358010471227080e-01 -5.671214427242112e-13 1.243871703258937e+00
-2.772044958509755e-01 -6.766485518629106e-13 1.457970071274657e+00
-2.556976974802321e-01 -6.025357189677080e-13 1.462103297302153e+00
-2.556976974805777e-01 -6.022255382986763e-13 1.462103297303626e+00
-2.772044958513169e-01 -6.773701774515435e-13 1.457970071276131e+00
-2.144766007599664e-01 -4.917617677128285e-13 1.247944665701894e+00
-1.931623979836884e-01 -4.163226479387275e-13 1.252013998678037e+00
-1.931623979840352e-01 -4.162704703746166e-13 1.252013998679523e+00
-2.144766007603163e-01 -4.915601450540283e-13 1.247944665703378e+00
-2.556976974802321e-01 -6.025357189677080e-13 1.462103297302153e+00
-2.341965927627588e-01 -5.274859757375996e-13 1.466234501576778e+00
-2.341965927631082e-01 -5.274653768779821e-13 1.466234501578250e+00
-2.556976974805777e-01 -6.022255382986763e-13 1.462103297303626e+00
-1.931623979836884e-01 -4.163226479387275e-13 1.252013998678037e+00
-1.718490066647954e-01 -3.411047863994637e-13 1.256082749437947e+00
-1.718490066651387e-01 -3.412541256453878e-13 1.256082749439434e+00
-1.931623979840352e-01 -4.162704703746166e-13 1.252013998679523e+00
-2.341965927627588e-01 -5.274859757375996e-13 1.466234501576778e+00
-2.126958206943399e-01 -4.523939847848219e-13 1.470366299034859e+00
-2.126958206946927e-01 -4.526214920260574e-13 1.470366299036331e+00
-2.341965927631082e-01 -5.274653768779821e-13 1.466234501578250e+00
-1.718490066647954e-01 -3.411047863994637e-13 1.256082749437947e+00
-1.505276167924040e-01 -2.656845084775338e-13 1.260154089615629e+00
-1.505276167927433e-01 -2.655661849785943e-13 1.260154089617118e+00
-1.718490066651387e-01 -3.412541256453878e-13 1.256082749439434e+00
-2.126958206943399e-01 -4.523939847848219e-13 1.470366299034859e+00
-1.911891218331849e-01 -3.774787318932795e-13 1.474500222744710e+00
-1.911891218335422e-01 -3.779098104820416e-13 1.474500222746181e+00
-2.126958206946927e-01 -4.526214920260574e-13 1.470366299036331e+00
        </DataArray>
        <DataArray type="Float64" Name="nodal_2PK_stresses_xyz" NumberOfComponents="6" format="ascii">
-3.670508443167296e-02 -3.243664636741008e-15 4.679023579141632e-02 -1.333663486904881e-13 1.963797080477388e-14 2.301035427113770e-03
5.310012745604086e-03 -5.614283105215347e-16 4.662927985181797e-02 1.683762489552247e-14 1.985560066576405e-14 2.116155794139985e-03
5.310012745795924e-03 -1.235390094201692e-15 4.662927985195497e-02 1.570528210168383e-14 -2.187233211954481e-15 2.116155794283723e-03
-3.670508443142446e-02 -3.466777158891008e-15 4.679023579155890e-02 -1.183929075830880e-13 -1.238120644177485e-14 2.301035427209896e-03
5.333681292360178e-03 5.476744282409150e-15 7.111397843459204e-02 -6.774669898960314e-16 1.582662460005041e-14 2.306426854735696e-03
3.817061060704546e-02 5.517576707913771e-15 7.103232542226438e-02 1.145260341774161e-13 2.244128545076534e-14 2.084605396000448e-03
3.817061060728490e-02 3.259945238305102e-15 7.103232542242721e-02 1.151732165131506e-13 1.715457962397881e-14 2.084605396132589e-03
5.333681292621248e-03 -3.107556551725464e-15 7.111397843472600e-02 -4.469302485464958e-15 5.325072570840805e-14 2.306426854848358e-03
5.310012745604086e-03 -5.614283105215347e-16 4.662927985181797e-02 1.683762489552247e-14 1.985560066576405e-14 2.116155794139985e-03
4.748778179042443e-02 5.230724596667896e-15 4.646841171148787e-02 1.536561339476899e-13 2.034906347066162e-14 1.745996070869837e-03
4.748778179056556e-02 4.084651048215674e-15 4.646841171163476e-02 1.565397328227284e-13 6.755392360925299e-15 1.745996071050154e-03
5.310012745795924e-03 -1.235390094201692e-15 4.662927985195497e-02 1.570528210168383e-14 -2.187233211954481e-15 2.116155794283723e-03
3.817061060704546e-02 5.517576707913771e-15 7.103232542226438e-02 1.145260341774161e-13 2.244128545076534e-14 2.084605396000448e-03
7.114635484394169e-02 -2.251982119665358e-15 7.094716583073825e-02 2.334667564151865e-13 6.860314029308654e-15 1.639909100872052e-03
7.114635484415904e-02 -2.243353212841495e-15 7.094716583088156e-02 2.329399715043504e-13 2.881806007519563e-14 1.639909101031885e-03
3.817061060728490e-02 3.259945238305102e-15 7.103232542242721e-02 1.151732165131506e-13 1.715457962397881e-14 2.084605396132589e-03
4.748778179042443e-02 5.230724596667896e-15 4.646841171148787e-02 1.536561339476899e-13 2.034906347066162e-14 1.745996070869837e-03
8.983173028999424e-02 -3.061742224543056e-15 4.662362080183333e-02 2.971053715174422e-13 3.666929816785374e-15 4.335797701709910e-04
8.983173029008476e-02 4.659999931056758e-15 4.662362080195285e-02 2.929972035274578e-13 -7.441735575344999e-15 4.335797703112193e-04
4.748778179056556e-02 4.084651048215674e-15 4.646841171163476e-02 1.565397328227284e-13 6.755392360925299e-15 1.745996071050154e-03
7.114635484394169e-02 -2.251982119665358e-15 7.094716583073825e-02 2.334667564151865e-13 6.860314029308654e-15 1.639909100872052e-03
1.042392834101440e-01 -3.333648630756117e-15 7.102844385730263e-02 3.562330255336051e-13 2.749429277149638e-15 3.092856045116402e-04
1.042392834103412e-01 -8.372796775689096e-15 7.102844385748931e-02 3.510588903657251e-13 2.933670016366645e-14 3.092856046466092e-04
7.114635484415904e-02 -2.243353212841495e-15 7.094716583088156e-02 2.329399715043504e-13 2.881806007519563e-14 1.639909101031885e-03
8.983173028999424e-02 -3.061742224543056e-15 4.662362080183333e-02 2.971053715174422e-13 3.666929816785374e-15 4.335797701709910e-04
1.323317014757996e-01 3.950711309927344e-16 4.677874209287316e-02 4.405764942905335e-13 -1.286526378011397e-14 -6.905994853726428e-04
1.323317014758298e-01 -3.468112055422373e-15 4.677874209302137e-02 4.394505130375289e-13 -2.554312086813685e-14 -6.905994852649108e-04
8.983173029008476e-02 4.659999931056758e-15 4.662362080195285e-02 2.929972035274578e-13 -7.441735575344999e-15 4.335797703112193e-04
1.042392834101440e-01 -3.333648630756117e-15 7.102844385730263e-02 3.562330255336051e-13 2.749429277149638e-15 3.092856045116402e-04
1.374385367225585e-01 -4.614185603874595e-15 7.111322846310446e-02 4.732731959411297e-13 2.335821325611907e-14 -7.996511233567493e-04
1.374385367227376e-01 -1.587054847885429e-16 7.111322846331367e-02 4.754395360896168e-13 -4.275149415845659e-14 -7.996511232556006e-04
1.042392834103412e-01 -8.372796775689096e-15 7.102844385748931e-02 3.510588903657251e-13 2.933670016366645e-14 3.092856046466092e-04
5.333681292360178e-03 5.476744282409150e-15 7.111397843459204e-02 -6.774669898960314e-16 1.582662460005041e-14 2.306426854735696e-03
3.817061060704546e-02 5.517576707913771e-15 7.103232542226438e-02 1.145260341774161e-13 2.244128545076534e-14 2.084605396000448e-03
3.817061060728490e-02 3.259945238305102e-15 7.103232542242721e-02 1.151732165131506e-13 1.715457962397881e-14 2.084605396132589e-03
5.333681292621248e-03 -3.107556551725464e-15 7.111397843472600e-02 -4.469302485464958e-15 5.325072570840805e-14 2.306426854848358e-03
4.581425371331756e-02 -5.723073731968463e-15 9.501292023475186e-02 8.086883693952522e-14 2.925054919333758e-14 2.138920068045913e-03
7.002685924254209e-02 2.740016801553958e-15 9.489461727307516e-02 1.981189884557305e-13 2.275242451576696e-14 1.949553570819291e-03
7.002685924282778e-02 3.787167685348915e-15 9.489461727323931e-02 2.001776425603154e-13 1.073581136480991e-14 1.949553570927860e-03
4.581425371359663e-02 2.516690356845193e-16 9.501292023495830e-02 7.846998361258101e-14 1.571357191432661e-15 2.138920068164329e-03
3.817061060704546e-02 5.517576707913771e-15 7.103232542226438e-02 1.145260341774161e-13 2.244128545076534e-14 2.084605396000448e-03
7.114635484394169e-02 -2.251982119665358e-15 7.094716583073825e-02 2.334667564151865e-13 6.860314029308654e-15 1.639909100872052e-03
7.114635484415904e-02 -2.243353212841495e-15 7.094716583088156e-02 2.329399715043504e-13 2.881806007519563e-14 1.639909101031885e-03
3.817061060728490e-02 3.259945238305102e-15 7.103232542242721e-02 1.151732165131506e-13 1.715457962397881e-14 2.084605396132589e-03
7.002685924254209e-02 2.740016801553958e-15 9.489461727307516e-02 1.981189884557305e-13 2.275242451576696e-14 1.949553570819291e-03
9.430710957465467e-02 5.887428566700280e-15 9.477845489929264e-02 3.157508019125504e-13 1.764057278219865e-14 1.542945448870953e-03
9.430710957494527e-02 3.509611929192628e-15 9.477845489941730e-02 3.163922058711056e-13 1.871258716337228e-14 1.542945449013849e-03
7.002685924282778e-02 3.787167685348915e-15 9.489461727323931e-02 2.001776425603154e-13 1.073581136480991e-14 1.949553570927860e-03
7.114635484394169e-02 -2.251982119665358e-15 7.094716583073825e-02 2.334667564151865e-13 6.860314029308654e-15 1.639909100872052e-03
1.042392834101440e-01 -3.333648630756117e-15 7.102844385730263e-02 3.562330255336051e-13 2.749429277149638e-15 3.092856045116402e-04
1.042392834103412e-01 -8.372796775689096e-15 7.102844385748931e-02 3.510588903657251e-13 2.933670016366645e-14 3.092856046466092e-04