<?xml version="1.0" ?> 
<!-- 
# vtk DataFile Version 3.0
-->
<VTKFile type="UnstructuredGrid" version="0.1" compressor="vtkZLibDataCompressor" byte_order="LittleEndian">
  <UnstructuredGrid>
    <FieldData>
      <DataArray type="Float64" Name="TIME" NumberOfTuples="1" format="ascii">
1.000000000000000e-08 
      </DataArray>
    </FieldData>

    <Piece NumberOfPoints="18" NumberOfCells="3" >
      <Points>
        <DataArray type="Float64" NumberOfComponents="3" format="ascii">
-2.500000000000000e+00 0.000000000000000e+00 0.000000000000000e+00
-2.167026562922078e+00 0.000000000000000e+00 1.029306887528395e-02
-1.835224352031726e+00 0.000000000000000e+00 3.979093372393808e-02
-1.505270517843865e+00 0.000000000000000e+00 8.696785609546195e-02
-1.177842210873414e+00 0.000000000000000e+00 1.502980975393552e-01
-8.536165816352951e-01 0.000000000000000e+00 2.282559196051174e-01
-8.536165816352951e-01 0.000000000000000e+00 2.282559196051174e-01
-5.330329943096072e-01 0.000000000000000e+00 3.192428412006626e-01
-2.159501636626270e-01 0.000000000000000e+00 4.217177260524335e-01
9.782573391087959e-02 0.000000000000000e+00 5.342408529375704e-01
4.084885220161473e-01 0.000000000000000e+00 6.553725006332136e-01
7.162320242584101e-01 0.000000000000000e+00 7.836729479165037e-01
7.162320242584101e-01 0.000000000000000e+00 7.836729479165037e-01
1.021368846992920e+00 0.000000000000000e+00 9.177755470521430e-01
1.324422601247240e+00 0.000000000000000e+00 1.056496080410624e+00
1.625903617635621e+00 0.000000000000000e+00 1.198668471928010e+00
1.926322226772317e+00 0.000000000000000e+00 1.343126645540361e+00
2.226188759271578e+00 0.000000000000000e+00 1.488704525183739e+00
        </DataArray>
      </Points>

      <Cells>
        <DataArray type="Int32" Name="connectivity" format="ascii">
0 1 2 3 4 5 6 7 8 9 10 11 12 13 14 15 16 17 
        </DataArray>
        <DataArray type="Int32" Name="offsets" format="ascii">
6 12 18 
        </DataArray>
        <DataArray type="UInt8" Name="types" format="ascii">
4 4 4 
        </DataArray>
      </Cells>

  <PointData>
        <DataArray type="Float64" Name="axial_strain" format="ascii">
0.000000000000000e+00
1.716883823283055e-05
3.225655395443283e-05
4.526314716480683e-05
5.618861786395258e-05
6.503296605187003e-05
6.503296605164799e-05
6.864744575324266e-05
6.631420578243841e-05
5.803324613923521e-05
4.380456682363309e-05
2.362816783563204e-05
2.362816783563204e-05
-1.600453987107288e-06
-2.223030893150125e-05
-3.826139699754982e-05
-4.969371818525304e-05
-5.652727249461087e-05
        </DataArray>
        <DataArray type="Float64" Name="curvature_2" format="ascii">
-1.860696852038387e-01
-1.731859763875039e-01
-1.603022675711691e-01
-1.474185587548343e-01
-1.345348499384994e-01
-1.216511411221646e-01
-1.206599246617033e-01
-1.077196353381026e-01
-9.477934601450200e-02
-8.183905669090136e-02
-6.889876736730072e-02
-5.595847804370008e-02
-5.613425017563901e-02
-4.484562748193884e-02
-3.355700478823866e-02
-2.226838209453847e-02
-1.097975940083827e-02
3.088632928619304e-04
        </DataArray>
        <DataArray type="Float64" Name="curvature_3" format="ascii">
0.000000000000000e+00
0.000000000000000e+00
0.000000000000000e+00
0.000000000000000e+00
0.000000000000000e+00
0.000000000000000e+00
0.000000000000000e+00
0.000000000000000e+00
0.000000000000000e+00
0.000000000000000e+00
0.000000000000000e+00
0.000000000000000e+00
0.000000000000000e+00
0.000000000000000e+00
0.000000000000000e+00
0.000000000000000e+00
0.000000000000000e+00
0.000000000000000e+00
        </DataArray>
        <DataArray type="Float64" Name="displacement" NumberOfComponents="3" format="ascii">
0.000000000000000e+00 0.000000000000000e+00 0.000000000000000e+00
-3.598962554782759e-04 0.000000000000000e+00 1.029306887528395e-02
-1.891018698526148e-03 0.000000000000000e+00 3.979093372393808e-02
-5.270517844065070e-03 0.000000000000000e+00 8.696785609546195e-02
-1.117554420701428e-02 0.000000000000000e+00 1.502980975393552e-01
-2.028324830229511e-02 0.000000000000000e+00 2.282559196051174e-01
-2.028324830229511e-02 0.000000000000000e+00 2.282559196051174e-01
-3.303299430980727e-02 0.000000000000000e+00 3.192428412006626e-01
-4.928349699602710e-02 0.000000000000000e+00 4.217177260524335e-01
-6.884093275572029e-02 0.000000000000000e+00 5.342408529375704e-01
-9.151147798365261e-02 0.000000000000000e+00 6.553725006332136e-01
-1.171013090745898e-01 0.000000000000000e+00 7.836729479165037e-01
-1.171013090745898e-01 0.000000000000000e+00 7.836729479165037e-01
-1.452978196734798e-01 0.000000000000000e+00 9.177755470521430e-01
-1.755773987525600e-01 0.000000000000000e+00 1.056496080410624e+00
-2.074297156975782e-01 0.000000000000000e+00 1.198668471928010e+00
-2.403444398942831e-01 0.000000000000000e+00 1.343126645540361e+00
-2.738112407284223e-01 0.000000000000000e+00 1.488704525183739e+00
        </DataArray>
        <DataArray type="Float64" Name="material_axial_force" format="ascii">
0.000000000000000e+00
1.571448711296609e-05
2.952414103688951e-05
4.142896177177026e-05
5.142894931760834e-05
5.952410367440375e-05
5.952410367420053e-05
6.283240525643418e-05
6.069681116698973e-05
5.311732140586716e-05
4.009393597306648e-05
2.162665486858770e-05
2.162665486858771e-05
-1.464881503001163e-06
-2.034720686885623e-05
-3.502032122897749e-05
-4.548422458336495e-05
-5.173891693201861e-05
        </DataArray>
        <DataArray type="Float64" Name="material_bending_moment_2" format="ascii">
-1.240464568025591e-03
-1.154573175916693e-03
-1.068681783807794e-03
-9.827903916988954e-04
-8.968989995899965e-04
-8.110076074810974e-04
-8.043994977446887e-04
-7.181309022540178e-04
-6.318623067633468e-04
-5.455937112726759e-04
-4.593251157820049e-04
-3.730565202913339e-04
-3.742283345042601e-04
-2.989708498795923e-04
-2.237133652549244e-04
-1.484558806302565e-04
-7.319839600558846e-05
2.059088619079551e-06
        </DataArray>
        <DataArray type="Float64" Name="material_bending_moment_3" format="ascii">
0.000000000000000e+00
0.000000000000000e+00
0.000000000000000e+00
0.000000000000000e+00
0.000000000000000e+00
0.000000000000000e+00
0.000000000000000e+00
0.000000000000000e+00
0.000000000000000e+00
0.000000000000000e+00
0.000000000000000e+00
0.000000000000000e+00
0.000000000000000e+00
0.000000000000000e+00
0.000000000000000e+00
0.000000000000000e+00
0.000000000000000e+00
0.000000000000000e+00
        </DataArray>
        <DataArray type="Float64" Name="material_shear_force_2" format="ascii">
0.000000000000000e+00
0.000000000000000e+00
0.000000000000000e+00
0.000000000000000e+00
0.000000000000000e+00
0.000000000000000e+00
0.000000000000000e+00
0.000000000000000e+00
0.000000000000000e+00
0.000000000000000e+00
0.000000000000000e+00
0.000000000000000e+00
0.000000000000000e+00
0.000000000000000e+00
0.000000000000000e+00
0.000000000000000e+00
0.000000000000000e+00
0.000000000000000e+00
        </DataArray>
        <DataArray type="Float64" Name="material_shear_force_3" format="ascii">
2.500000000000081e-04
2.468491433992683e-04
2.505439287375009e-04
2.610843560147061e-04
2.784704252308839e-04
3.027021363860342e-04
3.027021363859707e-04
3.503275650026345e-04
4.164831311926560e-04
5.011688349560354e-04
6.043846762927726e-04
7.261306552028676e-04
7.261306552028676e-04
8.532069559772671e-04
9.550716360048448e-04
1.031724695285601e-03
1.083166133819535e-03
1.109395951606648e-03
        </DataArray>
        <DataArray type="Float64" Name="material_torque" format="ascii">
0.000000000000000e+00
0.000000000000000e+00
0.000000000000000e+00
0.000000000000000e+00
0.000000000000000e+00
0.000000000000000e+00
0.000000000000000e+00
0.000000000000000e+00
0.000000000000000e+00
0.000000000000000e+00
0.000000000000000e+00
0.000000000000000e+00
0.000000000000000e+00
0.000000000000000e+00
0.000000000000000e+00
0.000000000000000e+00
0.000000000000000e+00
0.000000000000000e+00
        </DataArray>
        <DataArray type="Float64" Name="shear_strain_2" format="ascii">
0.000000000000000e+00
0.000000000000000e+00
0.000000000000000e+00
0.000000000000000e+00
0.000000000000000e+00
0.000000000000000e+00
0.000000000000000e+00
0.000000000000000e+00
0.000000000000000e+00
0.000000000000000e+00
0.000000000000000e+00
0.000000000000000e+00
0.000000000000000e+00
0.000000000000000e+00
0.000000000000000e+00
0.000000000000000e+00
0.000000000000000e+00
0.000000000000000e+00
        </DataArray>
        <DataArray type="Float64" Name="shear_strain_3" format="ascii">
5.462742152960573e-04
5.393892884277392e-04
5.474627522730605e-04
5.704946068320216e-04
6.084848521046223e-04
6.614334880908623e-04
6.614334880907236e-04
7.654996626735456e-04
9.100559827052224e-04
1.095102448185754e-03
1.320639059115141e-03
1.586665815493382e-03
1.586665815493382e-03
1.864339841446416e-03
2.086924034040205e-03
2.254418393274749e-03
2.366822919150047e-03
2.424137611666100e-03
        </DataArray>
        <DataArray type="Float64" Name="twist" format="ascii">
0.000000000000000e+00
0.000000000000000e+00
0.000000000000000e+00
0.000000000000000e+00
0.000000000000000e+00
0.000000000000000e+00
0.000000000000000e+00
0.000000000000000e+00
0.000000000000000e+00
0.000000000000000e+00
0.000000000000000e+00
0.000000000000000e+00
0.000000000000000e+00
0.000000000000000e+00
0.000000000000000e+00
0.000000000000000e+00
0.000000000000000e+00
0.000000000000000e+00
        </DataArray>
  </PointData>
  <CellData>
        <DataArray type="Float64" Name="axial_strain_GPs" NumberOfComponents="3" format="ascii">
0.000000000000000e+00 3.901999087352337e-05 6.503296605187003e-05
6.503296605164799e-05 6.291719091988668e-05 2.362816783563204e-05
2.362816783563204e-05 -3.082069882431870e-05 -5.652727249461087e-05
        </DataArray>
        <DataArray type="Float64" Name="cross_section_radius" format="ascii">
1.706886780539025e-01
1.706886780539025e-01
1.706886780539025e-01
        </DataArray>
        <DataArray type="Float64" Name="curvature_2_GPs" NumberOfComponents="3" format="ascii">
-1.788096080045274e-01 -1.538604131630017e-01 -1.289112183214760e-01
-1.133679638754077e-01 -8.830920135270168e-02 -6.325043882999570e-02
-4.977301728854899e-02 -2.791269344138856e-02 -6.052369594228113e-03
        </DataArray>
        <DataArray type="Float64" Name="curvature_3_GPs" NumberOfComponents="3" format="ascii">
0.000000000000000e+00 0.000000000000000e+00 0.000000000000000e+00
0.000000000000000e+00 0.000000000000000e+00 0.000000000000000e+00
0.000000000000000e+00 0.000000000000000e+00 0.000000000000000e+00
        </DataArray>
        <DataArray type="Float64" Name="element_owner" format="ascii">
0.000000000000000e+00
0.000000000000000e+00
0.000000000000000e+00
        </DataArray>
        <DataArray type="Float64" Name="material_axial_force_GPs" NumberOfComponents="3" format="ascii">
0.000000000000000e+00 3.571465555296022e-05 5.952410367440376e-05
5.952410367420053e-05 5.758755324538821e-05 2.162665486858770e-05
2.162665486858770e-05 -2.820991542463358e-05 -5.173891693201860e-05
        </DataArray>
        <DataArray type="Float64" Name="material_bending_moment_2_GPs" NumberOfComponents="3" format="ascii">
-1.192064053363516e-03 -1.025736087753345e-03 -8.594081221431732e-04
-7.557864258360515e-04 -5.887280090180113e-04 -4.216695921999714e-04
-3.318201152569933e-04 -1.860846229425904e-04 -4.034913062818743e-05
        </DataArray>
        <DataArray type="Float64" Name="material_bending_moment_3_GPs" NumberOfComponents="3" format="ascii">
0.000000000000000e+00 0.000000000000000e+00 0.000000000000000e+00
0.000000000000000e+00 0.000000000000000e+00 0.000000000000000e+00
0.000000000000000e+00 0.000000000000000e+00 0.000000000000000e+00
        </DataArray>
        <DataArray type="Float64" Name="material_shear_force_2_GPs" NumberOfComponents="3" format="ascii">
0.000000000000000e+00 0.000000000000000e+00 0.000000000000000e+00
0.000000000000000e+00 0.000000000000000e+00 0.000000000000000e+00
0.000000000000000e+00 0.000000000000000e+00 0.000000000000000e+00
        </DataArray>
        <DataArray type="Float64" Name="material_shear_force_3_GPs" NumberOfComponents="3" format="ascii">
2.500000000000081e-04 2.549584371337319e-04 3.027021363860342e-04
3.027021363859707e-04 4.565097158776759e-04 7.261306552028676e-04
7.261306552028676e-04 9.965496182385756e-04 1.109395951606648e-03
        </DataArray>
        <DataArray type="Float64" Name="material_torque_GPs" NumberOfComponents="3" format="ascii">
0.000000000000000e+00 0.000000000000000e+00 0.000000000000000e+00
0.000000000000000e+00 0.000000000000000e+00 0.000000000000000e+00
0.000000000000000e+00 0.000000000000000e+00 0.000000000000000e+00
        </DataArray>
        <DataArray type="Float64" Name="shear_strain_2_GPs" NumberOfComponents="3" format="ascii">
0.000000000000000e+00 0.000000000000000e+00 0.000000000000000e+00
0.000000000000000e+00 0.000000000000000e+00 0.000000000000000e+00
0.000000000000000e+00 0.000000000000000e+00 0.000000000000000e+00
        </DataArray>
        <DataArray type="Float64" Name="shear_strain_3_GPs" NumberOfComponents="3" format="ascii">
5.462742152960573e-04 5.571088807133362e-04 6.614334880908623e-04
6.614334880907236e-04 9.975179472643814e-04 1.586665815493382e-03
1.586665815493382e-03 2.177557442827383e-03 2.424137611666100e-03
        </DataArray>
        <DataArray type="Float64" Name="twist_GPs" NumberOfComponents="3" format="ascii">
0.000000000000000e+00 0.000000000000000e+00 0.000000000000000e+00
0.000000000000000e+00 0.000000000000000e+00 0.000000000000000e+00
0.000000000000000e+00 0.000000000000000e+00 0.000000000000000e+00
        </DataArray>
      </CellData>

    </Piece>
  </UnstructuredGrid>
</VTKFile>
