<?xml version="1.0" ?> 
<!-- 
# vtk DataFile Version 3.0
-->
<VTKFile type="UnstructuredGrid" version="0.1" compressor="vtkZLibDataCompressor" byte_order="LittleEndian">
  <UnstructuredGrid>
    <FieldData>
      <DataArray type="Float64" Name="TIME" NumberOfTuples="1" format="ascii">
3.000000000000000e+00 
      </DataArray>
    </FieldData>

    <Piece NumberOfPoints="927" NumberOfCells="0" >
      <Points>
        <DataArray type="Float64" NumberOfComponents="3" format="ascii">
7.000000000000000e-01 0.000000000000000e+00 0.000000000000000e+00
6.062177826489999e-01 3.500000000000000e-01 0.000000000000000e+00
6.062177826489999e-01 3.500000000000000e-01 5.000000000000000e-01
7.000000000000000e-01 0.000000000000000e+00 5.000000000000000e-01
1.000000000000000e+00 0.000000000000000e+00 0.000000000000000e+00
8.660254037839999e-01 5.000000000000000e-01 0.000000000000000e+00
8.660254037839999e-01 5.000000000000000e-01 5.000000000000000e-01
1.000000000000000e+00 0.000000000000000e+00 5.000000000000000e-01
3.500000000000000e-01 6.062177826489999e-01 0.000000000000000e+00
3.500000000000000e-01 6.062177826489999e-01 5.000000000000000e-01
5.000000000000000e-01 8.660254037839999e-01 0.000000000000000e+00
5.000000000000000e-01 8.660254037839999e-01 5.000000000000000e-01
0.000000000000000e+00 7.000000000000000e-01 0.000000000000000e+00
0.000000000000000e+00 7.000000000000000e-01 5.000000000000000e-01
0.000000000000000e+00 1.000000000000000e+00 0.000000000000000e+00
0.000000000000000e+00 1.000000000000000e+00 5.000000000000000e-01
6.062177826489999e-01 3.500000000000000e-01 1.000000000000000e+00
7.000000000000000e-01 0.000000000000000e+00 1.000000000000000e+00
8.660254037839999e-01 5.000000000000000e-01 1.000000000000000e+00
1.000000000000000e+00 0.000000000000000e+00 1.000000000000000e+00
3.500000000000000e-01 6.062177826489999e-01 1.000000000000000e+00
5.000000000000000e-01 8.660254037839999e-01 1.000000000000000e+00
0.000000000000000e+00 7.000000000000000e-01 1.000000000000000e+00
0.000000000000000e+00 1.000000000000000e+00 1.000000000000000e+00
6.062177826489999e-01 3.500000000000000e-01 1.500000000000000e+00
7.000000000000000e-01 0.000000000000000e+00 1.500000000000000e+00
8.660254037839999e-01 5.000000000000000e-01 1.500000000000000e+00
1.000000000000000e+00 0.000000000000000e+00 1.500000000000000e+00
3.500000000000000e-01 6.062177826489999e-01 1.500000000000000e+00
5.000000000000000e-01 8.660254037839999e-01 1.500000000000000e+00
0.000000000000000e+00 7.000000000000000e-01 1.500000000000000e+00
0.000000000000000e+00 1.000000000000000e+00 1.500000000000000e+00
0.000000000000000e+00 0.000000000000000e+00 3.500000000000000e+00
0.000000000000000e+00 0.000000000000000e+00 3.000000000000000e+00
0.000000000000000e+00 3.000000000000000e-01 3.000000000000000e+00
0.000000000000000e+00 3.000000000000000e-01 3.500000000000000e+00
5.000000000000000e-01 0.000000000000000e+00 3.500000000000000e+00
5.000000000000000e-01 0.000000000000000e+00 3.000000000000000e+00
5.000000000000000e-01 3.000000000000000e-01 3.000000000000000e+00
5.000000000000000e-01 3.000000000000000e-01 3.500000000000000e+00
0.000000000000000e+00 0.000000000000000e+00 2.500000000000000e+00
0.000000000000000e+00 3.000000000000000e-01 2.500000000000000e+00
5.000000000000000e-01 0.000000000000000e+00 2.500000000000000e+00
5.000000000000000e-01 3.000000000000000e-01 2.500000000000000e+00
1.000000000000000e+00 0.000000000000000e+00 3.500000000000000e+00
1.000000000000000e+00 0.000000000000000e+00 3.000000000000000e+00
1.000000000000000e+00 3.000000000000000e-01 3.000000000000000e+00
1.000000000000000e+00 3.000000000000000e-01 3.500000000000000e+00
1.000000000000000e+00 0.000000000000000e+00 2.500000000000000e+00
1.000000000000000e+00 3.000000000000000e-01 2.500000000000000e+00
1.500000000000000e+00 0.000000000000000e+00 3.500000000000000e+00
1.500000000000000e+00 0.000000000000000e+00 3.000000000000000e+00
1.500000000000000e+00 3.000000000000000e-01 3.000000000000000e+00
1.500000000000000e+00 3.000000000000000e-01 3.500000000000000e+00
1.500000000000000e+00 0.000000000000000e+00 2.500000000000000e+00
1.500000000000000e+00 3.000000000000000e-01 2.500000000000000e+00
2.000000000000000e+00 0.000000000000000e+00 3.500000000000000e+00
2.000000000000000e+00 0.000000000000000e+00 3.000000000000000e+00
2.000000000000000e+00 3.000000000000000e-01 3.000000000000000e+00
2.000000000000000e+00 3.000000000000000e-01 3.500000000000000e+00
2.000000000000000e+00 0.000000000000000e+00 2.500000000000000e+00
2.000000000000000e+00 3.000000000000000e-01 2.500000000000000e+00
7.000000000000000e-01 0.000000000000000e+00 5.000000000000000e+00
6.062177826489999e-01 3.500000000000000e-01 5.000000000000000e+00
6.062177826489999e-01 3.500000000000000e-01 5.500000000000000e+00
7.000000000000000e-01 0.000000000000000e+00 5.500000000000000e+00
1.000000000000000e+00 0.000000000000000e+00 5.000000000000000e+00
8.660254037839999e-01 5.000000000000000e-01 5.000000000000000e+00
8.660254037839999e-01 5.000000000000000e-01 5.500000000000000e+00
1.000000000000000e+00 0.000000000000000e+00 5.500000000000000e+00
6.761480784020000e-01 1.811733315720000e-01 5.000000000000000e+00
6.062177826489999e-01 3.500000000000000e-01 5.250000000000000e+00
6.761480784020000e-01 1.811733315720000e-01 5.500000000000000e+00
7.000000000000000e-01 0.000000000000000e+00 5.250000000000000e+00
8.500000000000000e-01 0.000000000000000e+00 5.000000000000000e+00
7.361215932170000e-01 4.250000000000000e-01 5.000000000000000e+00
7.361215932170000e-01 4.250000000000000e-01 5.500000000000000e+00
8.500000000000000e-01 0.000000000000000e+00 5.500000000000000e+00
9.659258262890000e-01 2.588190451030000e-01 5.000000000000000e+00
8.660254037839999e-01 5.000000000000000e-01 5.250000000000000e+00
9.659258262890000e-01 2.588190451030000e-01 5.500000000000000e+00
1.000000000000000e+00 0.000000000000000e+00 5.250000000000000e+00
3.500000000000000e-01 6.062177826489999e-01 5.000000000000000e+00
3.500000000000000e-01 6.062177826489999e-01 5.500000000000000e+00
5.000000000000000e-01 8.660254037839999e-01 5.000000000000000e+00
5.000000000000000e-01 8.660254037839999e-01 5.500000000000000e+00
4.949747468310000e-01 4.949747468310000e-01 5.000000000000000e+00
3.500000000000000e-01 6.062177826489999e-01 5.250000000000000e+00
4.949747468310000e-01 4.949747468310000e-01 5.500000000000000e+00
4.250000000000000e-01 7.361215932170000e-01 5.000000000000000e+00
4.250000000000000e-01 7.361215932170000e-01 5.500000000000000e+00
7.071067811870000e-01 7.071067811870000e-01 5.000000000000000e+00
5.000000000000000e-01 8.660254037839999e-01 5.250000000000000e+00
7.071067811870000e-01 7.071067811870000e-01 5.500000000000000e+00
0.000000000000000e+00 7.000000000000000e-01 5.000000000000000e+00
0.000000000000000e+00 7.000000000000000e-01 5.500000000000000e+00
0.000000000000000e+00 1.000000000000000e+00 5.000000000000000e+00
0.000000000000000e+00 1.000000000000000e+00 5.500000000000000e+00
1.811733315720000e-01 6.761480784020000e-01 5.000000000000000e+00
0.000000000000000e+00 7.000000000000000e-01 5.250000000000000e+00
1.811733315720000e-01 6.761480784020000e-01 5.500000000000000e+00
0.000000000000000e+00 8.500000000000000e-01 5.000000000000000e+00
0.000000000000000e+00 8.500000000000000e-01 5.500000000000000e+00
2.588190451030000e-01 9.659258262890000e-01 5.000000000000000e+00
0.000000000000000e+00 1.000000000000000e+00 5.250000000000000e+00
2.588190451030000e-01 9.659258262890000e-01 5.500000000000000e+00
6.062177826489999e-01 3.500000000000000e-01 6.000000000000000e+00
7.000000000000000e-01 0.000000000000000e+00 6.000000000000000e+00
8.660254037839999e-01 5.000000000000000e-01 6.000000000000000e+00
1.000000000000000e+00 0.000000000000000e+00 6.000000000000000e+00
6.062177826489999e-01 3.500000000000000e-01 5.750000000000000e+00
6.761480784020000e-01 1.811733315720000e-01 6.000000000000000e+00
7.000000000000000e-01 0.000000000000000e+00 5.750000000000000e+00
7.361215932170000e-01 4.250000000000000e-01 6.000000000000000e+00
8.500000000000000e-01 0.000000000000000e+00 6.000000000000000e+00
8.660254037839999e-01 5.000000000000000e-01 5.750000000000000e+00
9.659258262890000e-01 2.588190451030000e-01 6.000000000000000e+00
1.000000000000000e+00 0.000000000000000e+00 5.750000000000000e+00
3.500000000000000e-01 6.062177826489999e-01 6.000000000000000e+00
5.000000000000000e-01 8.660254037839999e-01 6.000000000000000e+00
3.500000000000000e-01 6.062177826489999e-01 5.750000000000000e+00
4.949747468310000e-01 4.949747468310000e-01 6.000000000000000e+00
4.250000000000000e-01 7.361215932170000e-01 6.000000000000000e+00
5.000000000000000e-01 8.660254037839999e-01 5.750000000000000e+00
7.071067811870000e-01 7.071067811870000e-01 6.000000000000000e+00
0.000000000000000e+00 7.000000000000000e-01 6.000000000000000e+00
0.000000000000000e+00 1.000000000000000e+00 6.000000000000000e+00
0.000000000000000e+00 7.000000000000000e-01 5.750000000000000e+00
1.811733315720000e-01 6.761480784020000e-01 6.000000000000000e+00
0.000000000000000e+00 8.500000000000000e-01 6.000000000000000e+00
0.000000000000000e+00 1.000000000000000e+00 5.750000000000000e+00
2.588190451030000e-01 9.659258262890000e-01 6.000000000000000e+00
6.062177826489999e-01 3.500000000000000e-01 6.500000000000000e+00
7.000000000000000e-01 0.000000000000000e+00 6.500000000000000e+00
8.660254037839999e-01 5.000000000000000e-01 6.500000000000000e+00
1.000000000000000e+00 0.000000000000000e+00 6.500000000000000e+00
6.062177826489999e-01 3.500000000000000e-01 6.250000000000000e+00
6.761480784020000e-01 1.811733315720000e-01 6.500000000000000e+00
7.000000000000000e-01 0.000000000000000e+00 6.250000000000000e+00
7.361215932170000e-01 4.250000000000000e-01 6.500000000000000e+00
8.500000000000000e-01 0.000000000000000e+00 6.500000000000000e+00
8.660254037839999e-01 5.000000000000000e-01 6.250000000000000e+00
9.659258262890000e-01 2.588190451030000e-01 6.500000000000000e+00
1.000000000000000e+00 0.000000000000000e+00 6.250000000000000e+00
[...]
  <PointData>
        <DataArray type="Float64" Name="displacement" NumberOfComponents="3" format="ascii">
3.354399975448162e-01 1.801473357809711e-01 -2.325400690121864e-02
1.684064733337786e-01 1.011849607634114e-01 -1.977454750890062e-02
1.113978928497429e-01 7.813474244693928e-02 -2.270536801602900e-02
2.596820050223317e-01 1.317193860773872e-01 -3.236117633687315e-02
3.298647068427991e-01 2.991597188279717e-01 2.447861924319142e-02
8.394457627184551e-02 1.850770066220019e-01 -1.252642288957769e-03
4.136953343007804e-02 1.353172274487172e-01 -5.188524387320032e-03
2.290481903505746e-01 2.667508188231194e-01 6.553482878001247e-03
4.738056819319698e-02 2.261972383191771e-02 -1.830391703211432e-06
3.528761436859416e-02 3.161286990228421e-02 -1.436125009177853e-02
-1.546139219186504e-02 3.317868854847743e-02 -1.313125294349759e-02
-5.925944696652749e-03 5.334799757209498e-02 -9.470257533622919e-03
0.000000000000000e+00 0.000000000000000e+00 0.000000000000000e+00
0.000000000000000e+00 0.000000000000000e+00 0.000000000000000e+00
0.000000000000000e+00 0.000000000000000e+00 0.000000000000000e+00
0.000000000000000e+00 0.000000000000000e+00 0.000000000000000e+00
9.280883018154963e-02 8.296716930422524e-02 -1.280293793404921e-02
1.807628029966256e-01 1.251338993005641e-01 -2.734717508137662e-02
4.523520055934404e-02 1.564306754210755e-01 -8.584560760379268e-03
1.680534348073583e-01 1.959308623385928e-01 4.116596945570441e-03
2.559934758771748e-02 1.830391789975331e-02 -5.034564384585770e-03
-2.259563316371166e-02 2.103032513055791e-02 -7.533500277106650e-03
0.000000000000000e+00 0.000000000000000e+00 0.000000000000000e+00
0.000000000000000e+00 0.000000000000000e+00 0.000000000000000e+00
7.172519378453154e-02 8.862039922207661e-02 -1.404549131499521e-02
1.380332715108753e-01 1.052631016437820e-01 -2.454749028514088e-02
4.020682258497627e-02 1.220430225294020e-01 -2.911310427422429e-03
1.317716614545872e-01 1.693868212859228e-01 -3.794779631272831e-03
3.486874409636878e-02 5.494563555131395e-02 2.826309341635625e-03
3.319544947131652e-03 8.306320852635718e-02 -1.510902421466601e-02
0.000000000000000e+00 0.000000000000000e+00 0.000000000000000e+00
0.000000000000000e+00 0.000000000000000e+00 0.000000000000000e+00
0.000000000000000e+00 0.000000000000000e+00 0.000000000000000e+00
0.000000000000000e+00 0.000000000000000e+00 0.000000000000000e+00
0.000000000000000e+00 0.000000000000000e+00 0.000000000000000e+00
0.000000000000000e+00 0.000000000000000e+00 0.000000000000000e+00
2.544653922104734e-02 8.468111091255226e-02 1.543884520527590e-02
2.395097796978796e-02 5.930616970473847e-02 2.465847755554964e-02
-2.093349161108796e-02 5.623721761727227e-02 -3.674866919889762e-04
-4.756722563379470e-02 7.677086042685910e-02 5.817851762750120e-03
0.000000000000000e+00 0.000000000000000e+00 0.000000000000000e+00
0.000000000000000e+00 0.000000000000000e+00 0.000000000000000e+00
2.600117264582930e-02 9.675455534345475e-03 3.712943598594703e-02
2.167112198404635e-04 3.551885386126589e-03 -8.996467008412550e-04
1.708229554292427e-02 2.575359187333484e-01 4.527830130754273e-02
3.159165907153689e-02 1.681823299787451e-01 5.864475200738568e-02
-3.829891944264859e-02 1.522045265590418e-01 -2.482583271487109e-04
-8.342385203464980e-02 2.333791333782446e-01 -5.098350821530866e-03
5.028682875298024e-02 6.213762356719951e-02 7.656242753450604e-02
4.173756183503213e-03 4.391935856230453e-02 6.668679203610701e-03
-9.612484271362708e-03 4.605693270293188e-01 6.120034015264525e-02
2.253962697136554e-02 3.158573543090479e-01 8.412110386511804e-02
-6.024708499303203e-02 2.903742908003816e-01 -2.862013171039449e-03
-1.116368800939504e-01 4.264859293367890e-01 -2.419294173522070e-02
5.814201509308602e-02 1.723376428224118e-01 1.080645250965861e-01
-1.049949534214472e-02 1.500366205427903e-01 1.818571052224903e-02
-4.689755603070248e-02 6.588878903405256e-01 6.028108971657042e-02
1.788196384351700e-03 4.723723680916515e-01 9.697129205056811e-02
-8.216197844915009e-02 4.356113322980178e-01 -9.867090418511306e-03
-1.492153329780494e-01 6.279760705528684e-01 -4.772657670823087e-02
4.477256482492788e-02 2.998591063682364e-01 1.230017407742995e-01
-2.696828131307201e-02 2.737727409524586e-01 2.192499420584893e-02
3.866420511482899e-01 2.364018220867813e-01 -4.310812143718337e-02
2.025042500931514e-01 1.441644023591510e-01 -2.067513923832403e-02
1.463077747192036e-01 1.167122844349284e-01 -3.011950014526391e-02
2.718914796930622e-01 1.745550497261890e-01 -4.917631648936787e-02
3.793866515556544e-01 3.598965395969888e-01 4.125255398025753e-02
1.008785973915394e-01 2.362786529176671e-01 6.502367139027250e-03
7.664297494332740e-02 1.948838422360522e-01 -1.539149267911386e-03
2.489366396347144e-01 2.803857943561805e-01 7.117845587222778e-03
2.944681526581753e-01 2.013266304459149e-01 -3.158651727531633e-02
1.767854545405859e-01 1.282588802859334e-01 -2.731017744165024e-02
2.069737150200975e-01 1.526361596162184e-01 -4.007866814263624e-02
3.317332473565157e-01 1.995463802640202e-01 -4.864108001456592e-02
3.760914954593631e-01 3.020547447850672e-01 -2.909466353283385e-03
1.519407452880542e-01 1.895697019270707e-01 -5.859498323356447e-03
1.103513097601962e-01 1.557487193242967e-01 -1.418924781408347e-02
2.612020514439552e-01 2.266115257191370e-01 -2.129604256105273e-02
2.421159550272379e-01 3.118495520427262e-01 2.598951940550465e-02
9.088154512444276e-02 2.143305947712740e-01 -5.437657416199560e-04
1.557774853132759e-01 2.485337505547691e-01 6.380817674031170e-03
3.001139758138959e-01 3.172369063892921e-01 1.843544109607016e-02
6.126513498642969e-02 3.407923996379139e-02 6.802618769705574e-04
5.177068406945677e-02 3.652569630709890e-02 -1.204724792046508e-02
-9.672336851034835e-03 6.077816319498359e-02 -9.894539652359938e-03
-9.333885549639990e-03 6.095327772469723e-02 -6.552494354417703e-03
1.205714259420339e-01 8.400370792238251e-02 -8.690578042746986e-03
6.030093485600075e-02 3.780541837473080e-02 -8.685903284681055e-03
9.405023175725664e-02 7.558231675876452e-02 -2.053329158283581e-02
2.447603573272546e-02 4.409326993202839e-02 -5.292522490756848e-03
2.079291881079627e-02 4.543855614474077e-02 -8.838664286008992e-03
2.211070657605400e-02 1.433822208857692e-01 -3.819028378693045e-03
-8.559843550765845e-03 6.352225420589371e-02 -6.323354878626723e-03
1.912174959043307e-02 1.284698473316856e-01 -6.927896592847729e-03
0.000000000000000e+00 0.000000000000000e+00 0.000000000000000e+00
0.000000000000000e+00 0.000000000000000e+00 0.000000000000000e+00
0.000000000000000e+00 0.000000000000000e+00 0.000000000000000e+00
0.000000000000000e+00 0.000000000000000e+00 0.000000000000000e+00
2.314733481678304e-02 6.720288018798293e-03 4.636230448639402e-03
0.000000000000000e+00 0.000000000000000e+00 0.000000000000000e+00
2.144720107152240e-02 1.077379064609177e-02 -6.010018141116162e-03
0.000000000000000e+00 0.000000000000000e+00 0.000000000000000e+00
0.000000000000000e+00 0.000000000000000e+00 0.000000000000000e+00
-1.072356922753994e-02 1.048996031186234e-02 -7.034349371083446e-03
0.000000000000000e+00 0.000000000000000e+00 0.000000000000000e+00
-1.057735451394209e-02 1.496765801603276e-02 -4.909051930767685e-03
1.015288419882446e-01 8.909535589251411e-02 -2.828643146060210e-02
1.971393506996820e-01 1.283323009379490e-01 -4.970321169374690e-02
5.276451856949140e-02 1.506394471299004e-01 -7.893273011027078e-04
1.849830425073545e-01 2.099484059002351e-01 -1.617601438076756e-02
1.216786098170893e-01 1.038138476133244e-01 -2.919808641751292e-02
1.473131558008988e-01 1.141254597847338e-01 -3.772661717763068e-02
2.287037923933712e-01 1.516092139265069e-01 -4.975049223322669e-02
7.694945547374619e-02 1.194922778412100e-01 -1.476254076768637e-02
1.905262375376292e-01 1.688057879369560e-01 -3.332480327365992e-02
6.373287300498157e-02 1.747489385904166e-01 -1.117356162749571e-03
1.132567678485597e-01 1.892089633205831e-01 -2.512642016043049e-03
2.124663284376270e-01 2.433486225555795e-01 -5.146864236407659e-03
3.607715323236367e-02 3.215401391273969e-02 -1.350967119544692e-02
-8.931853731998946e-03 5.319283335483671e-02 -3.529785587640948e-03
4.352306396763142e-02 3.551156677761749e-02 -1.277516202547690e-02
6.442269961988528e-02 6.072223949975287e-02 -2.051967322463443e-02
1.322415640334353e-02 4.089409283421280e-02 -8.356601169103035e-03
-8.931816411512210e-03 5.809761096040173e-02 -6.332305518742132e-03
1.132113419822573e-02 1.012760184544847e-01 -2.777550120941350e-03
0.000000000000000e+00 0.000000000000000e+00 0.000000000000000e+00
0.000000000000000e+00 0.000000000000000e+00 0.000000000000000e+00
0.000000000000000e+00 0.000000000000000e+00 0.000000000000000e+00
1.579214066593858e-02 1.085835223819996e-02 -6.557518065570497e-03
0.000000000000000e+00 0.000000000000000e+00 0.000000000000000e+00
0.000000000000000e+00 0.000000000000000e+00 0.000000000000000e+00
-1.073902547085882e-02 1.598976422501130e-02 -2.476987199147605e-03
7.278064724935451e-02 5.290415412913697e-02 -3.045277251701116e-02
1.535545446603848e-01 8.305453507097713e-02 -5.118151465333872e-02
3.353573845405564e-02 1.061544291813754e-01 -1.737239052391342e-03
1.440563171637326e-01 1.547636299166085e-01 -2.361130361222397e-02
8.607164060788708e-02 7.252190665618614e-02 -2.869631298915612e-02
1.105364110037957e-01 7.193550261105722e-02 -3.930228680388829e-02
1.732298491733170e-01 1.055557896856192e-01 -4.999539568734269e-02
5.274885156417509e-02 7.939977411398874e-02 -1.579596261928701e-02
1.489134258807923e-01 1.188144755361843e-01 -3.740928252411343e-02
4.442561945132779e-02 1.274957196988120e-01 -1.455724563688350e-03
8.306104993967106e-02 1.371739677623410e-01 -8.876455385355036e-03
1.629670881020744e-01 1.799648237870854e-01 -2.135329780104112e-02
2.327835974283022e-02 1.187039816554219e-02 -1.725252621741896e-02
-9.334239614210092e-03 2.780758905545992e-02 1.593761960662980e-03
2.856022019852297e-02 2.518820453531954e-02 -1.474174101381725e-02
4.402670903826611e-02 3.152882386895086e-02 -2.412851146732643e-02
6.620480488493004e-03 1.849828407025309e-02 -7.798326086310700e-03
-8.898352553481195e-03 4.360235888997895e-02 -7.139479935902555e-04
2.560964274624247e-03 6.605397288153500e-02 4.716498432507403e-04
0.000000000000000e+00 0.000000000000000e+00 0.000000000000000e+00
0.000000000000000e+00 0.000000000000000e+00 0.000000000000000e+00
0.000000000000000e+00 0.000000000000000e+00 0.000000000000000e+00
9.519377399901567e-03 2.255858507069781e-03 -1.019891069843573e-02
0.000000000000000e+00 0.000000000000000e+00 0.000000000000000e+00
0.000000000000000e+00 0.000000000000000e+00 0.000000000000000e+00
-5.386910518574052e-03 7.002837055075692e-03 2.284707144825595e-03
0.000000000000000e+00 0.000000000000000e+00 0.000000000000000e+00
0.000000000000000e+00 0.000000000000000e+00 0.000000000000000e+00
0.000000000000000e+00 0.000000000000000e+00 0.000000000000000e+00
0.000000000000000e+00 0.000000000000000e+00 0.000000000000000e+00
2.496548346480170e-02 1.129127189022108e-01 1.992394875871664e-02
4.087863423299355e-02 1.061061530007439e-01 3.200117110083616e-02
-5.145569538572300e-02 8.865539189586150e-02 1.324256103429410e-02
-8.109618938159370e-02 9.215685150917864e-02 2.262202964169641e-02
0.000000000000000e+00 0.000000000000000e+00 0.000000000000000e+00
0.000000000000000e+00 0.000000000000000e+00 0.000000000000000e+00
0.000000000000000e+00 0.000000000000000e+00 0.000000000000000e+00
0.000000000000000e+00 0.000000000000000e+00 0.000000000000000e+00
1.893480484665858e-02 2.942139813753366e-02 2.951619498454088e-03
2.551910696996529e-02 3.395431406964516e-02 1.235219703352412e-02
-2.528594098593499e-02 2.757007281346837e-02 3.247600249348327e-03
-3.959665426456527e-02 2.537333161681386e-02 1.558977535277004e-02
3.485405701395045e-02 1.153494376512462e-01 2.573790566489255e-02
-4.995683348746679e-03 9.480222889816257e-02 2.355693116308567e-02
-6.822124294405295e-02 9.548734463361000e-02 1.634351264025733e-02
-2.763654093611845e-02 9.947935831882630e-02 2.112449368912426e-02
0.000000000000000e+00 0.000000000000000e+00 0.000000000000000e+00
0.000000000000000e+00 0.000000000000000e+00 0.000000000000000e+00
6.534121372266613e-02 6.882444333425226e-02 4.740305793932103e-02
-1.146784484808181e-02 5.123651606461887e-02 1.119740690769124e-02
0.000000000000000e+00 0.000000000000000e+00 0.000000000000000e+00
0.000000000000000e+00 0.000000000000000e+00 0.000000000000000e+00
0.000000000000000e+00 0.000000000000000e+00 0.000000000000000e+00
3.429833304261283e-02 1.746467377198018e-02 2.387510119865477e-02
-2.389459610811280e-03 7.601475603543294e-03 1.193825271424259e-03
4.839301529479425e-02 9.076284354094270e-02 3.782822558045016e-02
2.760037023552784e-02 5.780175757387700e-02 2.985664545043310e-02
-3.305573246693101e-02 7.113990103964732e-02 1.087512305416479e-02
-1.103139116483543e-02 3.740088076716842e-01 6.331654681115001e-02
2.601370210813824e-02 3.346965383638101e-01 7.569450307009729e-02
-1.173636629779051e-01 2.939285729162581e-01 4.042805222947937e-02
-1.702753442873206e-01 3.240311127961944e-01 3.697420427096032e-02
1.445271210138871e-02 2.323632882606715e-01 4.228951510749723e-02
4.066839626564427e-02 2.093012456362928e-01 5.430542163092904e-02
-8.049442065786853e-02 1.799659743321284e-01 2.726060828309579e-02
-1.250827366978229e-01 1.965296747245826e-01 3.053710990505255e-02
9.183430189642235e-03 3.585771066384054e-01 6.953400876849820e-02
-4.622822634613125e-02 3.131617955293903e-01 5.711179352938994e-02
-1.449722516258271e-01 3.110204061401285e-01 3.861370264900521e-02
-8.948075003715991e-02 3.486805725651942e-01 5.079149838973900e-02
7.058391564248342e-02 2.774489115033805e-01 8.931607236939218e-02
-6.703028109570747e-02 2.377076306855755e-01 4.049444558087075e-02
7.828488658969636e-02 1.604647409766987e-01 7.062366748908318e-02
-3.361618718748901e-02 1.305180308280869e-01 2.501412198870955e-02
4.458636930741697e-02 3.069503072319842e-01 8.219718037439290e-02
2.827601730309134e-03 2.572835467651000e-01 6.512495351411712e-02
-9.357436559426424e-02 2.681305848547325e-01 4.030557044498874e-02
-8.993069203096288e-02 7.008657508066205e-01 9.345627897905266e-02
-3.982393382287534e-02 6.226962451500583e-01 1.040202983970948e-01
-2.096355798274185e-01 5.622836484718210e-01 4.948385153603439e-02
-2.709731374751414e-01 6.275861482342393e-01 4.128687877922813e-02
-4.535870251368507e-02 5.311919780375974e-01 8.122650706941244e-02
-2.087473482866692e-03 4.743263802367407e-01 9.226495857311480e-02
-1.598367730462760e-01 4.228465652044326e-01 4.926927758788188e-02
-2.186852998701137e-01 4.695922578294388e-01 4.231170823801881e-02
-6.390339990210600e-02 6.625284076110156e-01 9.945586365636259e-02
-1.249212911733842e-01 5.915028095123425e-01 7.613286408646119e-02
-2.366991927059195e-01 5.978816333775935e-01 4.768063201898622e-02
-1.816259759510748e-01 6.632863100207063e-01 6.649066270067577e-02
1.309585982930603e-02 5.430498589588321e-01 1.138868528002689e-01
-1.483295507346023e-01 4.886555526853063e-01 5.499492120632345e-02
4.674564145299775e-02 4.062864924857232e-01 1.041759703758900e-01
-1.056978625384526e-01 3.582380492457026e-01 4.896726837308128e-02
-1.539610326376838e-02 5.823924584555857e-01 1.085175272143000e-01
-6.702320812505649e-02 5.157577883418460e-01 8.480198594895762e-02
-1.802758105201939e-01 5.260754018612589e-01 5.116406548614640e-02
-2.041870423408646e-01 1.036101373619599e+00 9.720000402407691e-02
-1.361398732664403e-01 9.233411546930119e-01 1.103828641784172e-01
-3.112516125201634e-01 8.572600671153709e-01 4.086144682213551e-02
-3.899263770407615e-01 9.756739442654271e-01 1.716652448707500e-02
-1.462382375544594e-01 8.720455612293156e-01 9.873711154533796e-02
-8.624974480815348e-02 7.734402791218057e-01 1.099943631116892e-01
-2.608815049061866e-01 7.077961915061702e-01 4.573974406118902e-02
-3.268515721805521e-01 8.039566192184711e-01 3.210748760237719e-02
-1.677443119658121e-01 9.806195153417046e-01 1.051275089366352e-01
-2.230535168557258e-01 8.910558782453751e-01 7.585738794306830e-02
-3.498906548413507e-01 9.098352836634103e-01 3.071001478505943e-02
-2.975166874064679e-01 1.002919992020765e+00 5.762251347280162e-02
-7.172652209622681e-02 8.297349145787805e-01 1.227482430817198e-01
-2.411542194778751e-01 7.692260820472940e-01 5.761902146479246e-02
-2.758316521557216e-02 6.854032056033299e-01 1.196537188704415e-01
-1.942407482798846e-01 6.268852125829245e-01 5.663492424888254e-02
-1.044860403774596e-01 8.740883792292448e-01 1.163350800464577e-01
-1.566013416403023e-01 7.990648735328200e-01 9.004273944217003e-02
-2.746454608775168e-01 8.123583968640306e-01 5.054524708838175e-02
3.916143317739786e-01 2.412029464719236e-01 -4.203302993439004e-02
2.021970876825860e-01 1.492359105417159e-01 -1.936925717382370e-02
1.471484224170660e-01 1.193556194225101e-01 -2.982010081439674e-02
2.753780110786285e-01 1.784627254585567e-01 -4.983071938537814e-02
3.826356834921399e-01 3.654394140565547e-01 4.000251361605028e-02
9.912744954312357e-02 2.430740132833795e-01 1.016163111865847e-02
7.780963266914093e-02 1.981514258356608e-01 -2.186261021377798e-03
2.518958014679749e-01 2.857441085739035e-01 7.858859499206972e-03
2.979902554677151e-01 2.060259897000624e-01 -3.161420835936930e-02
1.787009682545809e-01 1.312382381013679e-01 -2.762517835359551e-02
2.091511562408492e-01 1.562446469979343e-01 -4.062276401471772e-02
3.319278642210194e-01 2.055228036383255e-01 -4.737733566445266e-02
3.768349205936786e-01 3.062412391883758e-01 -3.555691247834530e-03
1.543304040928050e-01 1.932604184296883e-01 -6.117824857942632e-03
1.115994534947916e-01 1.584350201517907e-01 -1.460289825210316e-02
2.625215299086791e-01 2.308836302090714e-01 -2.192479345978131e-02
2.438725669992801e-01 3.167507317797221e-01 2.666811701072065e-02
9.125417985845174e-02 2.185248846345479e-01 -9.637665057855697e-05
1.564776262431404e-01 2.532846392444290e-01 7.896638801748462e-03
3.004281539216165e-01 3.239984130395743e-01 2.069366745836441e-02
2.230176610071171e-01 2.309723938936365e-01 -1.233983255631816e-02
2.553188630063227e-01 1.762262586973544e-01 -3.906877231301516e-02
1.947980086335270e-01 2.823476635774378e-01 1.111489121280236e-02
3.166976833282713e-01 2.644502937873357e-01 -1.631731629857984e-02
1.342714054275784e-01 1.746068544432731e-01 -1.225344215176386e-02
2.663841775508758e-01 2.632604079746557e-01 -2.568128721198262e-03
1.826817202805943e-01 2.039134901986782e-01 -1.600438931513651e-02
6.255432513617175e-02 3.552404852584099e-02 3.640149977293264e-05
5.268641702939778e-02 3.728201863839328e-02 -1.211377295644346e-02
-1.071769648334960e-02 6.300325224872595e-02 -8.767720675471125e-03
-1.046085037044916e-02 6.233165311260155e-02 -5.537893531009832e-03
1.218287874646675e-01 8.764634209432696e-02 -8.286359637309908e-03
6.096448470750302e-02 3.822652523497536e-02 -8.575191662066070e-03
9.433029222318194e-02 7.781339199343468e-02 -2.053208795212933e-02
2.560093036917983e-02 4.721821651153861e-02 -5.259412925338859e-03
2.109777224184222e-02 4.796616081770100e-02 -9.160985300169682e-03
2.426428548814568e-02 1.465290420718140e-01 -4.277183431121137e-03
-9.093467345375344e-03 6.508936544118406e-02 -7.424206799146871e-03
1.946973780716165e-02 1.308776149010759e-01 -6.974572706258095e-03
6.604570135467980e-02 1.092690552789713e-01 -1.051001427369173e-02
1.120503146877222e-01 8.255467142825007e-02 -1.697823431549334e-02
2.195782584359853e-02 1.396228370557982e-01 -4.308168678214374e-03
2.544956088664363e-02 4.949288200001380e-02 -7.512343671313488e-03
7.157217598352808e-02 1.149704920064024e-01 -6.277079181674204e-03
5.623846677822638e-02 1.024204022199559e-01 -1.260341197181419e-02
0.000000000000000e+00 0.000000000000000e+00 0.000000000000000e+00
0.000000000000000e+00 0.000000000000000e+00 0.000000000000000e+00
0.000000000000000e+00 0.000000000000000e+00 0.000000000000000e+00
0.000000000000000e+00 0.000000000000000e+00 0.000000000000000e+00
2.453603215660743e-02 7.509462430943443e-03 5.216114552723711e-03
0.000000000000000e+00 0.000000000000000e+00 0.000000000000000e+00