<?xml version="1.0" ?> 
<!-- 
# vtk DataFile Version 3.0
-->
<VTKFile type="UnstructuredGrid" version="0.1" compressor="vtkZLibDataCompressor" byte_order="LittleEndian">
  <UnstructuredGrid>
    <FieldData>
      <DataArray type="Float64" Name="TIME" NumberOfTuples="1" format="ascii">
1.000000010000000e+00 
      </DataArray>
    </FieldData>

    <Piece NumberOfPoints="144" NumberOfCells="0" >
      <Points>
        <DataArray type="Float64" NumberOfComponents="3" format="ascii">
9.973911591788898e-01 7.070227589081610e-02 1.734723475976807e-18
8.653318377871235e-01 4.995995694850023e-01 4.527195285533925e-01
8.653318377871235e-01 4.995995694850022e-01 4.527195285533924e-01
8.408869671830003e-01 5.400341474920286e-01 5.000000000000000e-01
8.408869671830003e-01 5.400341474920286e-01 5.000000000000000e-01
7.071067811870000e-01 7.071067811870000e-01 7.146018366030000e-01
7.071067811870000e-01 7.071067811870000e-01 7.146018366030000e-01
4.995995694841946e-01 8.653318377857246e-01 9.764841446522946e-01
4.995995694841946e-01 8.653318377857246e-01 9.764841446522946e-01
4.790734834772050e-01 8.767844645519829e-01 1.000000000000000e+00
4.790734834772048e-01 8.767844645519829e-01 1.000000000000000e+00
0.000000000000000e+00 1.000000000000000e+00 1.500000000000000e+00
1.000000000000000e-01 3.000000000000000e-01 2.500000000000000e+00
4.999999999999999e-01 3.000000000000000e-01 2.709523809523774e+00
4.999999999999999e-01 3.000000000000000e-01 2.709523809523774e+00
9.999999999999997e-01 3.000000000000000e-01 2.971428571428627e+00
1.054545454545373e+00 3.000000000000000e-01 3.000000000000000e+00
1.150000000000000e+00 3.000000000000000e-01 3.050000000000000e+00
9.999999999999997e-01 3.000000000000000e-01 2.971428571428627e+00
1.054545454545372e+00 3.000000000000000e-01 3.000000000000000e+00
1.150000000000000e+00 3.000000000000000e-01 3.050000000000000e+00
1.500000000000000e+00 3.000000000000000e-01 3.233333333333286e+00
1.500000000000000e+00 2.999999999999999e-01 3.233333333333286e+00
2.000000000000000e+00 3.000000000000000e-01 3.495238095238156e+00
9.973911591791951e-01 7.070227588610377e-02 5.000000000000000e+00
8.653318377868586e-01 4.995995694848514e-01 5.452719528552424e+00
8.653318377868584e-01 4.995995694848515e-01 5.452719528552424e+00
8.408869671819502e-01 5.400341474932241e-01 5.500000000000000e+00
8.408869671819506e-01 5.400341474932233e-01 5.500000000000000e+00
7.071067811870000e-01 7.071067811870000e-01 5.714601836600000e+00
7.071067811870000e-01 7.071067811870000e-01 5.714601836600000e+00
4.995995694842540e-01 8.653318377858240e-01 5.976484144650065e+00
4.995995694842541e-01 8.653318377858241e-01 5.976484144650065e+00
4.790734834754157e-01 8.767844645530971e-01 6.000000000000000e+00
4.790734834754157e-01 8.767844645530969e-01 5.999999999999999e+00
0.000000000000000e+00 1.000000000000000e+00 6.500000000000000e+00
1.000000000000000e-01 3.000000000000000e-01 7.500000000000000e+00
4.999999999999999e-01 3.000000000000000e-01 7.709523809523774e+00
5.000000000000000e-01 3.000000000000000e-01 7.709523809523774e+00
1.000000000000000e+00 3.000000000000000e-01 7.971428571428627e+00
1.054545454545370e+00 3.000000000000000e-01 7.999999999999999e+00
1.150000000000000e+00 3.000000000000000e-01 8.050000000000001e+00
9.999999999999996e-01 3.000000000000000e-01 7.971428571428627e+00
1.054545454545370e+00 3.000000000000000e-01 7.999999999999999e+00
1.150000000000000e+00 3.000000000000000e-01 8.050000000000001e+00
1.500000000000000e+00 3.000000000000000e-01 8.233333333333286e+00
1.500000000000000e+00 3.000000000000000e-01 8.233333333333286e+00
2.000000000000000e+00 3.000000000000000e-01 8.495238095238156e+00
9.973911591791951e-01 7.070227588610380e-02 1.000000000000000e+01
8.653318377868586e-01 4.995995694848514e-01 1.045271952855243e+01
8.653318377868585e-01 4.995995694848514e-01 1.045271952855242e+01
8.408869671819499e-01 5.400341474932244e-01 1.050000000000000e+01
8.408869671819501e-01 5.400341474932240e-01 1.050000000000000e+01
7.071067811870000e-01 7.071067811870000e-01 1.071460183660000e+01
7.071067811870000e-01 7.071067811870000e-01 1.071460183660000e+01
4.995995694842541e-01 8.653318377858241e-01 1.097648414465006e+01
4.995995694842541e-01 8.653318377858241e-01 1.097648414465006e+01
4.790734834754157e-01 8.767844645530970e-01 1.100000000000000e+01
4.790734834754144e-01 8.767844645530978e-01 1.100000000000000e+01
0.000000000000000e+00 1.000000000000000e+00 1.150000000000000e+01
1.000000000000000e-01 3.000000000000000e-01 1.250000000000000e+01
4.999999999999999e-01 3.000000000000000e-01 1.270952380952378e+01
4.999999999999999e-01 3.000000000000000e-01 1.270952380952378e+01
9.999999999999999e-01 3.000000000000000e-01 1.297142857142863e+01
1.054545454545370e+00 3.000000000000000e-01 1.300000000000000e+01
1.150000000000000e+00 3.000000000000000e-01 1.305000000000000e+01
1.000000000000000e+00 3.000000000000000e-01 1.297142857142863e+01
1.054545454545363e+00 2.999999999999999e-01 1.299999999999999e+01
1.150000000000000e+00 3.000000000000000e-01 1.305000000000000e+01
1.500000000000000e+00 3.000000000000000e-01 1.323333333333329e+01
1.500000000000000e+00 3.000000000000000e-01 1.323333333333329e+01
2.000000000000000e+00 3.000000000000000e-01 1.349523809523816e+01
9.099253964686810e-01 4.123445562477631e-01 1.535465891035190e+01
8.072068738973140e-01 5.895903953275775e-01 1.555997156345694e+01
7.282908569028873e-01 6.852364697703509e-01 1.568414605091970e+01
7.071067811870000e-01 7.071067811870000e-01 1.571460183660000e+01
8.072068738973139e-01 5.895903953275780e-01 1.555997156345694e+01
7.282908569028872e-01 6.852364697703509e-01 1.568414605091970e+01
9.974169025693937e-01 7.035175387221296e-02 1.499964828143268e+01
9.099253964686809e-01 4.123445562477634e-01 1.535465891035190e+01
2.540633997442249e-01 9.663749324558524e-01 1.624282984380450e+01
0.000000000000000e+00 1.000000000000000e+00 1.650000000000000e+01
7.071067811870000e-01 7.071067811870000e-01 1.571460183660000e+01
5.836698286482834e-01 8.114624093944559e-01 1.587652933040514e+01
5.836698286482851e-01 8.114624093944550e-01 1.587652933040514e+01
4.573855792697502e-01 8.882244714677371e-01 1.602452973237035e+01
4.573855792697501e-01 8.882244714677371e-01 1.602452973237035e+01
2.540633997442271e-01 9.663749324558519e-01 1.624282984380450e+01
6.456898118068776e-01 3.000000000000000e-01 1.778583752047027e+01
8.155693453509683e-01 3.000000000000000e-01 1.787482203804104e+01
4.285291040100551e-01 3.000000000000000e-01 1.767208667352903e+01
6.456898118068786e-01 3.000000000000000e-01 1.778583752047028e+01
1.000000000000000e-01 3.000000000000000e-01 1.750000000000000e+01
4.285291040100564e-01 3.000000000000000e-01 1.767208667352903e+01
1.053627568438921e+00 3.000000000000000e-01 1.799951920251567e+01
1.150000000000000e+00 3.000000000000000e-01 1.805000000000000e+01
8.155693453509688e-01 3.000000000000000e-01 1.787482203804104e+01
1.053627568438920e+00 3.000000000000000e-01 1.799951920251567e+01
1.312800678365587e+00 2.999999999999999e-01 1.813527654581049e+01
1.590794601595392e+00 3.000000000000000e-01 1.828089241035947e+01
1.590794601595394e+00 2.999999999999999e-01 1.828089241035947e+01
1.995978191111754e+00 3.000000000000000e-01 1.849313143343955e+01
1.995978191111753e+00 3.000000000000000e-01 1.849313143343955e+01
2.000000000000000e+00 3.000000000000000e-01 1.849523809523816e+01
1.150000000000000e+00 3.000000000000000e-01 1.805000000000000e+01
1.204849796232627e+00 3.000000000000000e-01 1.807873084564564e+01
1.204849796232627e+00 3.000000000000000e-01 1.807873084564563e+01
1.312800678365586e+00 3.000000000000000e-01 1.813527654581049e+01
9.099485189372152e-01 4.122934081581782e-01 2.035460276540420e+01
8.076045172945490e-01 5.890410240244062e-01 2.055929282701539e+01
7.282909319600672e-01 6.852363897773420e-01 2.068414594118266e+01
7.071067811870000e-01 7.071067811870000e-01 2.071460183660000e+01
8.076045172945480e-01 5.890410240244077e-01 2.055929282701539e+01
7.282909319600673e-01 6.852363897773419e-01 2.068414594118266e+01
9.973911599562510e-01 7.070226533250656e-02 1.999999998940044e+01
9.099485189372151e-01 4.122934081581787e-01 2.035460276540421e+01
2.527774973574919e-01 9.667165115395006e-01 2.124416100680999e+01
0.000000000000000e+00 1.000000000000000e+00 2.150000000000000e+01
7.071067811870000e-01 7.071067811870000e-01 2.071460183660000e+01
5.837475137366747e-01 8.114069955678970e-01 2.087643382987411e+01
5.837475137366727e-01 8.114069955678983e-01 2.087643382987412e+01
4.573869885829552e-01 8.882237495531340e-01 2.102452814839284e+01
4.573869885829553e-01 8.882237495531340e-01 2.102452814839284e+01
2.527774973574926e-01 9.667165115395002e-01 2.124416100680999e+01
6.456898117728429e-01 3.000000000000000e-01 2.278583752045245e+01
8.155693453656027e-01 3.000000000000000e-01 2.287482203804870e+01
4.285291039950259e-01 3.000000000000000e-01 2.267208667352115e+01
6.456898117728418e-01 2.999999999999999e-01 2.278583752045245e+01
1.000000000000000e-01 3.000000000000000e-01 2.250000000000000e+01
4.285291039950233e-01 3.000000000000000e-01 2.267208667352115e+01
1.053627568438919e+00 3.000000000000000e-01 2.299951920251566e+01
1.150000000000000e+00 3.000000000000000e-01 2.305000000000000e+01
8.155693453656017e-01 2.999999999999999e-01 2.287482203804870e+01
1.053627568438926e+00 3.000000000000000e-01 2.299951920251567e+01
1.312800678387915e+00 3.000000000000000e-01 2.313527654582219e+01
1.590794601608110e+00 3.000000000000000e-01 2.328089241036613e+01
1.590794601608110e+00 3.000000000000000e-01 2.328089241036613e+01
1.995978191109075e+00 3.000000000000000e-01 2.349313143343815e+01
1.995978191109071e+00 2.999999999999999e-01 2.349313143343814e+01
2.000000000000000e+00 3.000000000000000e-01 2.349523809523816e+01
1.150000000000000e+00 3.000000000000000e-01 2.305000000000000e+01
1.204849796220207e+00 2.999999999999999e-01 2.307873084563913e+01
1.204849796220206e+00 3.000000000000000e-01 2.307873084563913e+01
1.312800678387914e+00 3.000000000000000e-01 2.313527654582218e+01
        </DataArray>
      </Points>

      <Cells>
        <DataArray type="Int32" Name="connectivity" format="ascii">
0 1 2 3 4 5 6 7 8 9 10 11 12 13 14 15 16 17 18 19 20 21 22 23 24 25 26 27 28 29 30 31 32 33 34 35 36 37 38 39 40 41 42 43 44 45 46 47 48 49 50 51 52 53 54 55 56 57 58 59 60 61 62 63 64 65 66 67 68 69 70 71 72 73 74 75 76 77 78 79 80 81 82 83 84 85 86 87 88 89 90 91 92 93 94 95 96 97 98 99 100 101 102 103 104 105 106 107 108 109 110 111 112 113 114 115 116 117 118 119 120 121 122 123 124 125 126 127 128 129 130 131 132 133 134 135 136 137 138 139 140 141 142 143 
        </DataArray>
        <DataArray type="Int32" Name="offsets" format="ascii">

        </DataArray>
        <DataArray type="UInt8" Name="types" format="ascii">

        </DataArray>
      </Cells>

  <PointData>
        <DataArray type="Float64" Name="displacement" NumberOfComponents="3" format="ascii">
2.063639480387780e-01 2.010303082326248e-01 -1.075046010134065e-03
2.434858186941480e-02 9.978231510933522e-02 -9.566626325228755e-03
2.434858186941480e-02 9.978231510933533e-02 -9.566626325228644e-03
1.465030264975720e-02 8.994459132431187e-02 -1.002067965896414e-02
1.465030264975720e-02 8.994459132431187e-02 -1.002067965896414e-02
-1.279040568146017e-02 4.894101967432596e-02 -1.044465528334826e-02
-1.279040568146017e-02 4.894101967432596e-02 -1.044465528334826e-02
-2.220183616954086e-02 1.084941862031430e-02 -8.948914191535318e-03
-2.220183616954086e-02 1.084941862031430e-02 -8.948914191535318e-03
-2.221076626719770e-02 8.289269704926272e-03 -8.769789048556076e-03
-2.221076626719776e-02 8.289269704926161e-03 -8.769789048556076e-03
0.000000000000000e+00 0.000000000000000e+00 0.000000000000000e+00
0.000000000000000e+00 0.000000000000000e+00 0.000000000000000e+00
-4.219522406238740e-03 1.583663494278870e-02 -3.002447939466357e-04
-4.219522406238796e-03 1.583663494278881e-02 -3.002447939466357e-04
-1.648369999113852e-02 8.383638281648048e-02 5.320873013245908e-04
-1.834473398696024e-02 9.475392217708756e-02 4.573330270560838e-04
-2.186634618775884e-02 1.155996462592403e-01 1.686166694172542e-04
-1.648369999113852e-02 8.383638281648048e-02 5.320873013245908e-04
-1.834473398696046e-02 9.475392217708728e-02 4.573330270556397e-04
-2.186634618775884e-02 1.155996462592403e-01 1.686166694172542e-04
-3.542601397227374e-02 2.056429407726156e-01 -3.490022794381265e-03
-3.542601397227330e-02 2.056429407726156e-01 -3.490022794381265e-03
-5.916009386823995e-02 3.716963272560109e-01 -1.581741113229551e-02
2.883475528078006e-01 2.976577811283490e-01 9.593409196691383e-03
7.034309284199125e-02 1.747771662592502e-01 -7.133908279033818e-03
7.034309284199125e-02 1.747771662592501e-01 -7.133908279033818e-03
5.696451353318777e-02 1.616469436886612e-01 -7.643341436667228e-03
5.696451353318821e-02 1.616469436886614e-01 -7.643341436667228e-03
1.373355777497764e-02 1.044382276005024e-01 -7.865107001498117e-03
1.373355777497764e-02 1.044382276005024e-01 -7.865107001498117e-03
-7.297219748918726e-03 4.781176595493197e-02 -4.437390162159716e-03
-7.297219748918671e-03 4.781176595493186e-02 -4.437390162159716e-03
-7.897521695073961e-03 4.371625683312774e-02 -4.024465371093910e-03
-7.897521695073850e-03 4.371625683312774e-02 -4.024465371094799e-03
0.000000000000000e+00 0.000000000000000e+00 0.000000000000000e+00
0.000000000000000e+00 0.000000000000000e+00 0.000000000000000e+00
-1.561114728406404e-02 4.218645910133451e-02 7.739634753406222e-03
-1.561114728406415e-02 4.218645910133451e-02 7.739634753406222e-03
-5.632126545232263e-02 1.846696960440089e-01 2.896599608003658e-02
-6.173063037170246e-02 2.044612571057355e-01 3.093221027236392e-02
-7.150821052387002e-02 2.405319702191112e-01 3.384478814989933e-02
-5.632126545232297e-02 1.846696960440087e-01 2.896599608003481e-02
-6.173063037170257e-02 2.044612571057355e-01 3.093221027236392e-02
-7.150821052387002e-02 2.405319702191112e-01 3.384478814989933e-02
-1.098184461931551e-01 3.898479297726352e-01 3.801637968335214e-02
-1.098184461931553e-01 3.898479297726350e-01 3.801637968335037e-02
-1.766659786427898e-01 6.521070682397712e-01 2.512466307118899e-02
2.926799896216381e-01 3.054286304144700e-01 9.026718618054375e-03
7.196408939853993e-02 1.797172371529017e-01 -7.772072775173555e-03
7.196408939853993e-02 1.797172371529017e-01 -7.772072775173555e-03
5.838058745996466e-02 1.663151870754838e-01 -8.261496132755397e-03
5.838058745996499e-02 1.663151870754840e-01 -8.261496132753621e-03
1.431500630404348e-02 1.077856679054460e-01 -8.363250325787774e-03
1.431500630404348e-02 1.077856679054460e-01 -8.363250325787774e-03
-7.322649862757324e-03 4.958094632164134e-02 -4.722935140042850e-03
-7.322649862757324e-03 4.958094632164134e-02 -4.722935140042850e-03
-7.948356604903117e-03 4.536272363098148e-02 -4.288622542068410e-03
-7.948356604903228e-03 4.536272363098115e-02 -4.288622542068410e-03
0.000000000000000e+00 0.000000000000000e+00 0.000000000000000e+00
0.000000000000000e+00 0.000000000000000e+00 0.000000000000000e+00
-1.593037848338857e-02 4.321460010330586e-02 7.674060611188693e-03
-1.593037848338857e-02 4.321460010330586e-02 7.674060611188693e-03
-5.737927252213304e-02 1.888556959673312e-01 2.893905694027232e-02
-6.288969266097222e-02 2.089912729300809e-01 3.091259925926337e-02
-7.285303962067013e-02 2.456230588956028e-01 3.383786562185698e-02
-5.737927252213315e-02 1.888556959673313e-01 2.893905694027410e-02
-6.288969266097144e-02 2.089912729300786e-01 3.091259925926337e-02
-7.285303962067013e-02 2.456230588956028e-01 3.383786562185698e-02
-1.119039182671364e-01 3.968731523105909e-01 3.785828639878019e-02
-1.119039182671364e-01 3.968731523105909e-01 3.785828639878019e-02
-1.802014438045749e-01 6.620139696699729e-01 2.436857740122456e-02
4.172984780679878e-02 1.028527109107641e-01 -5.042580175102174e-03
1.328375736468645e-02 8.543935229385002e-02 -1.085196867690996e-02
1.251145303066026e-03 7.312041338015929e-02 -1.276607031048904e-02
-1.460439440491124e-03 6.978883678315817e-02 -1.298514846008025e-02
1.328375736468623e-02 8.543935229384980e-02 -1.085196867691174e-02
1.251145303066026e-03 7.312041338015940e-02 -1.276607031049082e-02
1.446445639937255e-01 1.326401988193242e-01 7.472746235993810e-03
4.172984780679867e-02 1.028527109107640e-01 -5.042580175103950e-03
-1.447882709447529e-02 -3.549557681031268e-03 -4.793034181599154e-03
0.000000000000000e+00 0.000000000000000e+00 0.000000000000000e+00
-1.460439440491124e-03 6.978883678315817e-02 -1.298514846008025e-02
-1.239862894114174e-02 4.734907333219496e-02 -1.238454449875981e-02
-1.239862894114163e-02 4.734907333219507e-02 -1.238454449875803e-02
-1.679572851948280e-02 2.367517110380102e-02 -9.904290820227146e-03
-1.679572851948274e-02 2.367517110380102e-02 -9.904290820227146e-03
-1.447882709447540e-02 -3.549557681031157e-03 -4.793034181595601e-03
-4.025016520633917e-03 1.665349563136265e-02 1.304721123474906e-03
-5.874388459319646e-03 2.874003366712968e-02 2.230761638305268e-03
-2.077017281057858e-03 5.847248851639841e-03 3.832976190345505e-04
-4.025016520633917e-03 1.665349563136270e-02 1.304721123471353e-03
0.000000000000000e+00 0.000000000000000e+00 0.000000000000000e+00
-2.077017281057914e-03 5.847248851639897e-03 3.832976190345505e-04
-8.955031016626647e-03 5.076186255123744e-02 3.618130192837299e-03
-1.036668519490513e-02 6.128898018041318e-02 4.152383505800827e-03
-5.874388459319646e-03 2.874003366712968e-02 2.230761638301715e-03
-8.955031016626869e-03 5.076186255123732e-02 3.618130192833746e-03
-1.278406354453820e-02 8.126570092119234e-02 4.781021619020720e-03
-1.683558502231097e-02 1.217727455511870e-01 4.891570237397502e-03
-1.683558502231075e-02 1.217727455511873e-01 4.891570237397502e-03
-2.320196215151182e-02 1.942635281830525e-01 3.555394579919380e-03
-2.320196215151160e-02 1.942635281830524e-01 3.555394579919380e-03
-2.327095593039341e-02 1.950582211189883e-01 3.536503605747754e-03
-1.036668519490513e-02 6.128898018041318e-02 4.152383505800827e-03
-1.119100440874843e-02 6.770066521656781e-02 4.417322763767828e-03
-1.119100440874865e-02 6.770066521656776e-02 4.417322763771381e-03
-1.278406354453843e-02 8.126570092119212e-02 4.781021619020720e-03
1.042672254687251e-01 2.069347193119696e-01 -6.205788670513357e-03
4.314470282600180e-02 1.496919513214338e-01 -8.727146549766474e-03
1.872845748386076e-02 1.156320939114696e-01 -8.575899994593073e-03
1.406197923791475e-02 1.075354797894083e-01 -8.365909913393921e-03
4.314470282600125e-02 1.496919513214332e-01 -8.727146549766474e-03
1.872845748386076e-02 1.156320939114697e-01 -8.575899994593073e-03
2.873701990722266e-01 3.012135144136231e-01 7.996860436584541e-03
1.042672254687250e-01 2.069347193119694e-01 -6.205788670516910e-03
-6.879776270910604e-03 1.192798901089009e-02 -2.536302022235759e-04
0.000000000000000e+00 0.000000000000000e+00 0.000000000000000e+00
1.406197923791475e-02 1.075354797894083e-01 -8.365909913393921e-03
-2.819239233003756e-03 6.876905833675295e-02 -6.320167096482976e-03
-2.819239233003756e-03 6.876905833675251e-02 -6.320167096482976e-03
-8.701264799436115e-03 4.049843816619891e-02 -3.701246442361139e-03
-8.701264799436059e-03 4.049843816619869e-02 -3.701246442361139e-03
-6.879776270910631e-03 1.192798901089021e-02 -2.536302022271286e-04
-2.598845438331110e-02 7.654005782652729e-02 1.387282595190698e-02
-3.989211067196097e-02 1.250857825825394e-01 2.156016396642357e-02
-1.176931488786542e-02 2.974328956929800e-02 5.277526076426398e-03
-2.598845438331110e-02 7.654005782652706e-02 1.387282595191053e-02
0.000000000000000e+00 0.000000000000000e+00 0.000000000000000e+00
-1.176931488786531e-02 2.974328956929750e-02 5.277526076426398e-03
-6.245980381042027e-02 2.067229082042143e-01 3.134288490460690e-02
-7.234553947400646e-02 2.432107901107400e-01 3.432865824877140e-02
-3.989211067196086e-02 1.250857825825391e-01 2.156016396642002e-02
-6.245980381042104e-02 2.067229082042168e-01 3.134288490459980e-02
-8.969855829340223e-02 3.092800558095344e-01 3.762649255066464e-02
-1.218907036654633e-01 4.364001798443212e-01 3.817726548527389e-02
-1.218907036654635e-01 4.364001798443213e-01 3.817726548527389e-02
-1.781487050733983e-01 6.537678764812516e-01 2.678481196205951e-02
-1.781487050733979e-01 6.537678764812491e-01 2.678481196205951e-02
-1.787797859137901e-01 6.561151418866948e-01 2.659575737350650e-02
-7.234553947400646e-02 2.432107901107400e-01 3.432865824877140e-02
-7.810295045970439e-02 2.647771955808526e-01 3.567822586757785e-02
-7.810295045970417e-02 2.647771955808523e-01 3.567822586757430e-02
-8.969855829340179e-02 3.092800558095339e-01 3.762649255066108e-02
        </DataArray>
        <DataArray type="Float64" Name="projection_direction" NumberOfComponents="3" format="ascii">
1.274441582543639e-03 6.822110918919266e-04 -3.614027331230538e-04
4.639273639967523e-03 3.952428694567023e-03 -5.257922374373725e-04
4.639273639967634e-03 3.952428694567023e-03 -5.257922374373725e-04
-1.124807125559513e-03 -1.285032976762857e-03 -1.962236726597566e-04
-1.124807125559513e-03 -1.285032976762857e-03 -1.962236726597566e-04
-8.228075511480526e-04 -1.026833215600265e-03 1.588080641888867e-04
-8.228075511480526e-04 -1.026833215600265e-03 1.588080641888867e-04
1.797008806839695e-03 4.190581091655488e-03 4.327051791919168e-05
1.797008806839695e-03 4.190581091655488e-03 4.327051791885861e-05
-9.600445628304977e-04 -3.702336838596887e-04 2.980027684909015e-04
-9.600445628304421e-04 -3.702336838595777e-04 2.980027684910125e-04
0.000000000000000e+00 0.000000000000000e+00 0.000000000000000e+00
2.031386002880609e-05 3.086283089815400e-04 -1.480778495128732e-04
-2.088032867264555e-04 -1.842207313389188e-03 -1.767840610336080e-04
-2.088032867263445e-04 -1.842207313389188e-03 -1.767840610331639e-04
5.764693847676305e-05 -1.421992336133437e-03 4.995784291184080e-05
-1.436094220075290e-05 5.724774040705150e-06 1.237749149129996e-05
-1.408595905998400e-04 3.543921279406947e-04 -6.270068423575026e-05
5.764693847676305e-05 -1.421992336133493e-03 4.995784291228489e-05
-1.436094220030881e-05 5.724774040871683e-06 1.237749149263223e-05
-1.408595905998400e-04 3.543921279406947e-04 -6.270068423575026e-05
1.290655712224975e-04 -5.152285159301107e-04 1.451458006647144e-04
1.290655712224975e-04 -5.152285159298886e-04 1.451458006647144e-04
3.678950408914083e-04 -7.951052585921659e-04 1.135988280949185e-04
-5.895565883786702e-04 -1.782583136197280e-04 -1.236675004268051e-05
4.142158929498763e-05 8.049394728770753e-05 -1.457581466342006e-04
4.142158929487660e-05 8.049394728748549e-05 -1.457581466342006e-04
-2.998203907844665e-05 -7.591577467769284e-07 3.865712961648171e-05
-2.998203907855768e-05 -7.591577466659061e-07 3.865712961648171e-05
-4.588291607776629e-05 -1.444386814564158e-05 7.527152446762386e-05
-4.588291607776629e-05 -1.444386814564158e-05 7.527152446762386e-05
-1.879834660234447e-05 7.133394581282371e-05 -8.478830441305263e-06
-1.879834660245550e-05 7.133394581304575e-05 -8.478830442193441e-06
-3.668870133660684e-05 3.456662626988294e-05 3.562912689147879e-05
-3.668870133655133e-05 3.456662626999396e-05 3.562912689325515e-05
0.000000000000000e+00 0.000000000000000e+00 8.881784197001252e-16
-2.030743832241860e-04 -7.534440229493566e-04 -3.512055671617276e-04
-1.121001736797966e-05 -1.354102717909811e-04 -6.660257535884284e-05
-1.121001736792415e-05 -1.354102717908701e-04 -6.660257535706648e-05
-1.240059828852003e-04 7.183283717171474e-05 -3.536203935361470e-05
1.690461604461069e-04 6.220557707492524e-05 1.034320869770511e-04
-3.603987598665981e-05 -3.669495088998165e-05 -4.317026722233663e-05
-1.240059828845341e-04 7.183283717204780e-05 -3.536203935006199e-05
1.690461604463289e-04 6.220557707481422e-05 1.034320869770511e-04
-3.603987598665981e-05 -3.669495088998165e-05 -4.317026722233663e-05
5.641212305262933e-05 -8.978639066037353e-05 1.211710910737906e-04
5.641212305307342e-05 -8.978639066004046e-05 1.211710910755670e-04
4.815687964487836e-05 5.849833193427578e-05 -3.062783274643266e-05
-3.847235976546237e-04 -3.014632193650280e-04 -3.478672290011531e-04
7.245150838841585e-05 7.761227474900600e-05 -2.218371003568365e-04
7.245150838841585e-05 7.761227474889498e-05 -2.218371003550601e-04
6.585934144942573e-05 -3.979351301608425e-05 -2.909849768784056e-05
6.585934144931471e-05 -3.979351301608425e-05 -2.909849768428785e-05
4.650768764102864e-06 -6.741759876582876e-06 1.148362677838577e-06
4.650768764102864e-06 -6.741759876582876e-06 1.148362677838577e-06
1.888700230767704e-05 7.893856520613252e-05 -2.373887359219395e-05
1.888700230767704e-05 7.893856520602149e-05 -2.373887358864124e-05
4.358751380673098e-05 7.364521175790006e-05 -1.965859595998154e-05
4.358751380678649e-05 7.364521175801109e-05 -1.965859596175790e-05
0.000000000000000e+00 0.000000000000000e+00 0.000000000000000e+00
-1.303364405119689e-04 -6.341420244382334e-04 -2.600153081662171e-04
-1.903629320210154e-05 -7.927387853090551e-05 -2.903538441678677e-05
-1.903629320199052e-05 -7.927387853101653e-05 -2.903538442033948e-05
-8.868105418247119e-05 3.449739227057158e-07 -2.840144014903956e-05
2.077826712324482e-04 1.303083473647160e-05 1.002060695842744e-04
-1.022460432267280e-04 -3.440480866490070e-05 -9.070020300150361e-05
-8.868105418302630e-05 3.449739227612270e-07 -2.840144015081592e-05
2.077826712325592e-04 1.303083473680466e-05 1.002060695878271e-04
-1.022460432267280e-04 -3.440480866490070e-05 -9.070020300150361e-05
1.047696507083806e-05 -6.724622393750046e-05 5.486331774662290e-05
1.047696507083806e-05 -6.724622393727842e-05 5.486331774662290e-05
-4.039408582001691e-05 3.803146114034206e-06 -1.332317615521106e-05
3.863903660081935e-03 4.707240663901269e-03 -5.153206575165825e-04
-1.994617362909734e-03 -2.963767223939651e-03 2.387233488629903e-04
5.286066655615262e-03 7.612148867189306e-03 -7.350405165738039e-04
2.397877761167844e-03 3.468408266914746e-03 -2.793555067324149e-04
-1.994617362909734e-03 -2.963767223939540e-03 2.387233488629903e-04
5.286066655615484e-03 7.612148867189195e-03 -7.350405165738039e-04
1.427598649894612e-04 1.912481590741505e-03 2.146777537017641e-04
3.863903660081824e-03 4.707240663901158e-03 -5.153206575183589e-04
-1.088006618358311e-03 -1.843711862268615e-03 3.373543553628622e-04
6.595652687282180e-18 0.000000000000000e+00 0.000000000000000e+00
2.397877761167844e-03 3.468408266914746e-03 -2.793555067324149e-04
-2.431844753384316e-03 -3.425078733361175e-03 3.230919658694376e-04
-2.431844753384538e-03 -3.425078733361064e-03 3.230919658694376e-04
3.521056819422164e-03 7.970892795794771e-03 -4.770220521272961e-04
3.521056819422164e-03 7.970892795794771e-03 -4.770220521272961e-04
-1.088006618358339e-03 -1.843711862268504e-03 3.373543553699676e-04
-3.171564558024365e-05 -7.585377363100720e-05 -8.863957271998402e-05
1.303320685398512e-04 -7.888423953802404e-04 1.030312322924942e-04
2.187219223646619e-04 -1.599313260861268e-03 -1.521962265478294e-04
-3.171564558002160e-05 -7.585377363095169e-05 -8.863957271643130e-05
-3.183017780942071e-04 6.519942482132168e-04 1.079588140768806e-04
2.187219223646619e-04 -1.599313260861379e-03 -1.521962265513821e-04
-4.737927583131629e-05 5.582929239746903e-04 -3.979275287235851e-05
-9.337322711888696e-05 -2.452573451823814e-04 -4.189593916237300e-06
1.303320685399623e-04 -7.888423953801849e-04 1.030312322960469e-04
-4.737927583109425e-05 5.582929239748013e-04 -3.979275286880579e-05
4.603982533146755e-05 -2.396048031860776e-05 -4.594080188269345e-06
-6.850512415335075e-06 -1.143205817072113e-03 1.245857091234370e-04
-6.850512415557120e-06 -1.143205817072390e-03 1.245857091198843e-04
9.421322968372614e-05 -1.430055891797566e-03 7.172140582767383e-05
9.421322968394819e-05 -1.430055891797510e-03 7.172140582767383e-05
1.057297326159112e-04 -1.574218917264669e-03 6.955370157868401e-05
-9.337322711888696e-05 -2.452573451823814e-04 -4.189593916237300e-06
-9.866577662442921e-05 -1.122831850845329e-03 5.520156980054480e-05
-9.866577662420717e-05 -1.122831850845218e-03 5.520156980409752e-05
4.603982533168960e-05 -2.396048031860776e-05 -4.594080188269345e-06
-6.578358971309761e-05 8.140767647846214e-05 1.970723618072157e-05
-4.886984395235938e-05 -1.198495944365607e-05 2.242680420039278e-06
-8.729749197800007e-05 7.401481594160320e-05 2.528354358943830e-05
-2.502680407301394e-05 -5.101431078180507e-05 6.171259189002853e-05
-4.886984395235938e-05 -1.198495944387812e-05 2.242680409381137e-06
-8.729749197822212e-05 7.401481594149217e-05 2.528354359299101e-05
-1.230256038792010e-03 -4.089740392576591e-05 -1.801858987775518e-04
-6.578358971354170e-05 8.140767647857317e-05 1.970723617361614e-05
-1.156938285750142e-04 3.554279153727968e-05 6.221123636862558e-05
1.467775899921254e-18 0.000000000000000e+00 -1.421085471520200e-14
-2.502680407301394e-05 -5.101431078180507e-05 6.171259189002853e-05
3.661907604590731e-06 -7.133793499580765e-05 -2.378569000072162e-05
3.661907604368686e-06 -7.133793499547458e-05 -2.378569000072162e-05
-1.276585733298585e-04 -1.399341384222819e-05 3.844150822729375e-05
-1.276585733298585e-04 -1.399341384233921e-05 3.844150822374104e-05
-1.156938285750142e-04 3.554279153727968e-05 6.221123637573100e-05
-2.449554194705605e-05 -3.219957923666916e-05 -5.097392447694915e-05
-1.862792559037540e-05 -8.040329648162370e-05 -4.087159840082677e-05
-4.123027665509094e-05 -9.227026532859783e-05 -6.594031102835629e-05
-2.449554194672299e-05 -3.219957923678018e-05 -5.097392447694915e-05
-1.121919792824999e-04 -7.726841765294257e-04 -2.466538632361903e-04
-4.123027665536849e-05 -9.227026532820926e-05 -6.594031102125086e-05
1.251828309419833e-04 -1.025297822754290e-06 6.136535882816929e-05
-5.999046421734100e-05 -8.297665207790406e-05 -1.364869006295066e-04
-1.862792559026438e-05 -8.040329648134614e-05 -4.087159839372134e-05
1.251828309418723e-04 -1.025297823087357e-06 6.136535882461658e-05
7.344451297819354e-05 -2.396549489513955e-05 8.532412567774372e-05
-7.013945598011162e-05 -5.825531914560589e-05 5.627048801670753e-05
-7.013945597944549e-05 -5.825531914560589e-05 5.627048802026025e-05