<?xml version="1.0" ?> 
<!-- 
# vtk DataFile Version 3.0
-->
<VTKFile type="UnstructuredGrid" version="0.1" compressor="vtkZLibDataCompressor" byte_order="LittleEndian">
  <UnstructuredGrid>
    <FieldData>
      <DataArray type="Float64" Name="TIME" NumberOfTuples="1" format="ascii">
3.000000000000000e+00 
      </DataArray>
    </FieldData>

    <Piece NumberOfPoints="432" NumberOfCells="0" >
      <Points>
        <DataArray type="Float64" NumberOfComponents="3" format="ascii">
9.961533271249772e-01 8.592418384678263e-02 1.528337982331200e-02
9.887948166351245e-01 1.468155374270068e-01 7.667799810771526e-02
9.699057734523876e-01 2.404816442810291e-01 1.723323091259246e-01
9.380670753119250e-01 3.436214899201149e-01 2.803645491270424e-01
9.009383449562893e-01 4.317257829641916e-01 3.760283814780545e-01
8.728438351829588e-01 4.862941241986100e-01 4.374338241997576e-01
8.645497179207690e-01 5.009905353633890e-01 4.543169038318230e-01
8.613358063736756e-01 5.065360022142251e-01 4.607295218781859e-01
8.562595335071101e-01 5.151341387639032e-01 4.707195401452113e-01
8.504256031905375e-01 5.247830668030913e-01 4.820013477889918e-01
8.451705116306317e-01 5.332719929190378e-01 4.919911981986658e-01
8.417533079841827e-01 5.386933026253933e-01 4.984036254144578e-01
8.369844012625144e-01 5.461338450598406e-01 5.072470518605612e-01
8.208293326319031e-01 5.703233495071933e-01 5.363568825278568e-01
7.942826731317092e-01 6.070389578825850e-01 5.817045503305586e-01
7.623226018629761e-01 6.469891358987735e-01 6.329131400689270e-01
7.323077742787821e-01 6.809298918793747e-01 6.782544153420192e-01
7.122098786565071e-01 7.019647732937389e-01 7.073569785881059e-01
7.008269703339650e-01 7.133286624821787e-01 7.234425934339291e-01
6.750380656917666e-01 7.377237166736984e-01 7.589561375426007e-01
6.331395642194958e-01 7.737907594582356e-01 8.142863031150043e-01
5.834721328776936e-01 8.116130623034302e-01 8.767770828577718e-01
5.375825449257529e-01 8.424573708019101e-01 9.321159789766326e-01
5.072563274668254e-01 8.609148991254212e-01 9.676394485080029e-01
4.989181105624472e-01 8.657388507079918e-01 9.772772463162399e-01
4.961485477197376e-01 8.673179129656859e-01 9.804668126475878e-01
4.918240125484837e-01 8.697606269083593e-01 9.854357811279071e-01
4.869258747753885e-01 8.724938773765353e-01 9.910473410530819e-01
4.825760223300797e-01 8.748916482902315e-01 9.960163415429137e-01
4.797776772515959e-01 8.764196165457182e-01 9.992059442646466e-01
4.641820757027362e-01 8.847293964097783e-01 1.016883977387486e+00
4.030747554866604e-01 9.140811066112818e-01 1.084705534588477e+00
3.043774023420248e-01 9.515951681557092e-01 1.190363718097799e+00
1.889884020168897e-01 9.814371024916003e-01 1.309679306070888e+00
8.453087395143127e-02 9.962767781174711e-01 1.415320141478604e+00
1.687503226683158e-02 9.998508504843151e-01 1.483121976289675e+00
1.135060971593723e-01 2.999999999999999e-01 2.507074622321568e+00
1.677581227067583e-01 2.999999999999999e-01 2.535492349989220e+00
2.522761627833781e-01 3.000000000000000e-01 2.579763704315047e+00
3.477238372166552e-01 2.999999999999999e-01 2.629760105208663e+00
4.322418772932615e-01 3.000000000000000e-01 2.674031459534515e+00
4.864939028406323e-01 3.000000000000000e-01 2.702449187202197e+00
5.168826214492115e-01 3.000000000000000e-01 2.718367087425746e+00
5.846976533834305e-01 3.000000000000000e-01 2.753889247010356e+00
6.903452034791921e-01 2.999999999999999e-01 2.809228439917691e+00
8.096547965207874e-01 2.999999999999999e-01 2.871723941034747e+00
9.153023466165575e-01 3.000000000000000e-01 2.927063133942068e+00
9.831173785507854e-01 3.000000000000000e-01 2.962585293526660e+00
1.057768500458407e+00 3.000000000000000e-01 3.001688262144921e+00
1.070715006554950e+00 2.999999999999999e-01 3.008469765338345e+00
1.090884084300523e+00 3.000000000000000e-01 3.019034520347923e+00
1.113661370244847e+00 3.000000000000000e-01 3.030965479652083e+00
1.133830447990420e+00 3.000000000000000e-01 3.041530234661658e+00
1.146776954086965e+00 2.999999999999999e-01 3.048311737855079e+00
1.001841740521729e+00 3.000000000000000e-01 2.972393292654295e+00
1.009239744005451e+00 3.000000000000000e-01 2.976268437336243e+00
1.020764931288608e+00 3.000000000000000e-01 2.982305440198846e+00
1.033780523256763e+00 2.999999999999999e-01 2.989123131229781e+00
1.045305710539920e+00 3.000000000000000e-01 2.995160134092385e+00
1.052703714023642e+00 3.000000000000000e-01 2.999035278774333e+00
1.161817835014451e+00 3.000000000000000e-01 3.056190294531372e+00
1.209288357368413e+00 3.000000000000000e-01 3.081055806240567e+00
1.283241642435455e+00 3.000000000000000e-01 3.119793241275662e+00
1.366758357564573e+00 3.000000000000000e-01 3.163540092057572e+00
1.440711642631604e+00 3.000000000000000e-01 3.202277527092688e+00
1.488182164985553e+00 3.000000000000000e-01 3.227143038801907e+00
1.516882621449212e+00 3.000000000000000e-01 3.242176611235258e+00
1.584697653383433e+00 3.000000000000000e-01 3.277698770819866e+00
1.690345203479196e+00 3.000000000000000e-01 3.333037963727203e+00
1.809654796520792e+00 3.000000000000000e-01 3.395533464844262e+00
1.915302346616560e+00 3.000000000000000e-01 3.450872657751589e+00
1.983117378550786e+00 3.000000000000000e-01 3.486394817336187e+00
9.961533271253296e-01 8.592418384217376e-02 5.015283379823330e+00
9.887948166356073e-01 1.468155374228856e-01 5.076677998107750e+00
9.699057734529003e-01 2.404816442778350e-01 5.172332309125818e+00
9.380670753122621e-01 3.436214899181053e-01 5.280364549126623e+00
9.009383449563296e-01 4.317257829632458e-01 5.376028381477314e+00
8.728438351827587e-01 4.862941241983075e-01 5.437433824198830e+00
8.645497179204790e-01 5.009905353632850e-01 5.454316903830886e+00
8.613358063732846e-01 5.065360022143093e-01 5.460729521877379e+00
8.562595335065577e-01 5.151341387642768e-01 5.470719540144607e+00
8.504256031897974e-01 5.247830668037863e-01 5.482001347788620e+00
8.451705116297210e-01 5.332719929200129e-01 5.491991198198501e+00
8.417533079831601e-01 5.386933026265457e-01 5.498403625414426e+00
8.369844012614825e-01 5.461338450610063e-01 5.507247051860443e+00
8.208293326309561e-01 5.703233495082327e-01 5.536356882527267e+00
7.942826731309313e-01 6.070389578834086e-01 5.581704550329273e+00
7.623226018624463e-01 6.469891358993184e-01 5.632913140066917e+00
7.323077742785252e-01 6.809298918796344e-01 5.678254415339432e+00
7.122098786564531e-01 7.019647732937931e-01 5.707356978585183e+00
7.008269703339560e-01 7.133286624821875e-01 5.723442593430942e+00
6.750380656917322e-01 7.377237166737389e-01 5.758956137539680e+00
6.331395642194487e-01 7.737907594583108e-01 5.814286303112216e+00
5.834721328776663e-01 8.116130623035268e-01 5.876777082855174e+00
5.375825449257670e-01 8.424573708020124e-01 5.932115978974230e+00
5.072563274668751e-01 8.609148991255217e-01 5.967639448505737e+00
4.989181105624448e-01 8.657388507081271e-01 5.977277246314084e+00
4.961485477194867e-01 8.673179129659634e-01 5.980466812645735e+00
4.918240125478441e-01 8.697606269088557e-01 5.985435781126525e+00
4.869258747743074e-01 8.724938773772738e-01 5.991047341052233e+00
4.825760223286057e-01 8.748916482911806e-01 5.996016341542536e+00
4.797776772498685e-01 8.764196165468005e-01 5.999205944264572e+00
4.641820757010026e-01 8.847293964108310e-01 6.016883977387496e+00
4.030747554851750e-01 9.140811066120947e-01 6.084705534588534e+00
3.043774023409638e-01 9.515951681561915e-01 6.190363718097931e+00
1.889884020163067e-01 9.814371024917954e-01 6.309679306071064e+00
8.453087395121368e-02 9.962767781175123e-01 6.415320141478731e+00
1.687503226679496e-02 9.998508504843168e-01 6.483121976289708e+00
1.135060971593723e-01 2.999999999999999e-01 7.507074622321567e+00
1.677581227067584e-01 2.999999999999999e-01 7.535492349989219e+00
2.522761627833782e-01 3.000000000000000e-01 7.579763704315047e+00
3.477238372166552e-01 3.000000000000000e-01 7.629760105208663e+00
4.322418772932615e-01 3.000000000000000e-01 7.674031459534515e+00
4.864939028406323e-01 3.000000000000000e-01 7.702449187202197e+00
5.168826214492115e-01 3.000000000000000e-01 7.718367087425746e+00
5.846976533834306e-01 3.000000000000000e-01 7.753889247010356e+00
6.903452034791924e-01 3.000000000000000e-01 7.809228439917693e+00
8.096547965207879e-01 3.000000000000000e-01 7.871723941034748e+00
9.153023466165575e-01 3.000000000000000e-01 7.927063133942069e+00
9.831173785507861e-01 3.000000000000000e-01 7.962585293526661e+00
1.057768500458404e+00 3.000000000000000e-01 8.001688262144921e+00
1.070715006554948e+00 3.000000000000000e-01 8.008469765338344e+00
1.090884084300521e+00 3.000000000000000e-01 8.019034520347923e+00
1.113661370244846e+00 3.000000000000000e-01 8.030965479652084e+00
1.133830447990420e+00 3.000000000000000e-01 8.041530234661657e+00
1.146776954086965e+00 3.000000000000000e-01 8.048311737855082e+00
1.001841740521729e+00 2.999999999999999e-01 7.972393292654295e+00
1.009239744005451e+00 3.000000000000000e-01 7.976268437336243e+00
1.020764931288607e+00 3.000000000000000e-01 7.982305440198846e+00
1.033780523256761e+00 3.000000000000000e-01 7.989123131229781e+00
1.045305710539918e+00 2.999999999999999e-01 7.995160134092385e+00
1.052703714023640e+00 3.000000000000000e-01 7.999035278774334e+00
1.161817835014451e+00 3.000000000000000e-01 8.056190294531373e+00
1.209288357368413e+00 3.000000000000000e-01 8.081055806240567e+00
1.283241642435455e+00 3.000000000000000e-01 8.119793241275664e+00
1.366758357564573e+00 3.000000000000000e-01 8.163540092057572e+00
1.440711642631603e+00 3.000000000000000e-01 8.202277527092688e+00
1.488182164985553e+00 3.000000000000000e-01 8.227143038801907e+00
1.516882621449212e+00 3.000000000000000e-01 8.242176611235257e+00
1.584697653383433e+00 3.000000000000000e-01 8.277698770819866e+00
1.690345203479196e+00 2.999999999999999e-01 8.333037963727202e+00
1.809654796520792e+00 3.000000000000000e-01 8.395533464844263e+00
1.915302346616560e+00 3.000000000000000e-01 8.450872657751589e+00
1.983117378550787e+00 3.000000000000000e-01 8.486394817336187e+00
[...]
  <PointData>
        <DataArray type="Float64" Name="displacement" NumberOfComponents="3" format="ascii">
2.697886608697984e-01 2.735787275337379e-01 2.044606613710057e-02
2.239531017106543e-01 2.528402727844269e-01 1.517442767832390e-02
1.623903024957992e-01 2.213558532477816e-01 8.243993368377500e-03
1.061142902290449e-01 1.871759021458284e-01 2.143092450192452e-03
6.684495792233214e-02 1.582980191922048e-01 -1.883062717238038e-03
4.635398441596927e-02 1.405228356988947e-01 -3.852937848203286e-03
4.132024596150330e-02 1.357466021748850e-01 -4.316330246337707e-03
3.947359963552022e-02 1.339453744620979e-01 -4.483828132755163e-03
3.666729585675044e-02 1.311536120568271e-01 -4.735575063244735e-03
3.360007745868065e-02 1.280220085292186e-01 -5.006584580642404e-03
3.097306299106450e-02 1.252679519056459e-01 -5.234963666933545e-03
2.933024379174021e-02 1.235095904468061e-01 -5.375895549451892e-03
2.711966683179678e-02 1.210968432643478e-01 -5.563079991780184e-03
2.028410205064723e-02 1.132563323502108e-01 -6.121746847561949e-03
1.092696119418279e-02 1.013606598781787e-01 -6.823678198371819e-03
2.127250767136379e-03 8.841179742675187e-02 -7.385942349164343e-03
-4.224236675188786e-03 7.739336263404262e-02 -7.695968709368617e-03
-7.642789615555090e-03 7.055014951988681e-02 -7.809093844650561e-03
-9.329928956535727e-03 6.684930897856423e-02 -7.846483683849104e-03
-1.266873198428864e-02 5.894406055192070e-02 -7.905398931462138e-03
-1.687685005396033e-02 4.739203201071063e-02 -7.937387944012220e-03
-2.026411593713673e-02 3.551739439940593e-02 -7.879385349985890e-03
-2.214454231031260e-02 2.609289027078432e-02 -7.738119127867704e-03
-2.283708211583158e-02 2.060634257496041e-02 -7.600067158451074e-03
-2.295907043769135e-02 1.919580609991178e-02 -7.555971387693150e-03
-2.299340427501595e-02 1.873642361481986e-02 -7.540742445109827e-03
-2.304096758020857e-02 1.802815110993861e-02 -7.516383444190589e-03
-2.308606958502174e-02 1.723914760762324e-02 -7.487940881371835e-03
-2.311844607051716e-02 1.655014791649378e-02 -7.461923880375809e-03
-2.313551459625068e-02 1.611267595258392e-02 -7.444810021232651e-03
-2.317822420438237e-02 1.375648548499897e-02 -7.344040651343198e-03
-2.256730399947071e-02 5.817114834314685e-03 -6.861437021851158e-03
-1.944498525153249e-02 -2.909368262457468e-03 -5.785784615600420e-03
-1.336452935323457e-02 -7.059819397589040e-03 -4.051164212636182e-03
-6.343015875089730e-03 -5.313314757221077e-03 -2.009221110914616e-03
-1.299251051448066e-03 -1.346348190901292e-03 -4.280787302379796e-04
-1.275962682481674e-04 4.081208605594133e-05 -1.094495590221456e-04
-7.372863787818151e-04 8.613725965471719e-04 -4.534344486106789e-04
-2.014785846036982e-03 4.243519743099500e-03 -7.203082071756128e-04
-3.977262458741304e-03 1.116406387498792e-02 -7.092312208043516e-04
-6.215139104510048e-03 2.005791777236826e-02 -5.042591324970758e-04
-7.916645116092635e-03 2.714452583907667e-02 -3.118206147143532e-04
-8.964580435465774e-03 3.158683746543678e-02 -1.920496305007902e-04
-1.155879375144386e-02 4.272946224423352e-02 8.567016764970958e-05
-1.634078672476980e-02 6.348927905381868e-02 4.713533117315372e-04
-2.290359359075611e-02 9.195340910727900e-02 6.788905682793001e-04
-2.982207452117047e-02 1.216418028878439e-01 5.015356721149722e-04
-3.484517887718663e-02 1.429349836448045e-01 1.391591633272959e-04
-4.092709897982605e-02 1.684094200528833e-01 -5.379159355243246e-04
-4.204252500350658e-02 1.730452190067715e-01 -6.885727948002796e-04
-4.381666015285735e-02 1.803958840473390e-01 -9.443092393279784e-04
-4.587412839650429e-02 1.888858110500716e-01 -1.265026694004412e-03
-4.774427352386268e-02 1.965709206376339e-01 -1.578382793369748e-03
-4.896884960128567e-02 2.015869367422390e-01 -1.794545223554600e-03
-3.631538019526070e-02 1.491238053007813e-01 -1.442045861388408e-06
-3.690636895525112e-02 1.516060219663927e-01 -6.219711057475763e-05
-3.783855002782766e-02 1.555148210845844e-01 -1.628847696499847e-04
-3.890821100682351e-02 1.599903764650634e-01 -2.856438569676101e-04
-3.987048098978985e-02 1.640077541275876e-01 -4.025669953775513e-04
-4.049567667550047e-02 1.666134095669090e-01 -4.817795525182689e-04
-5.040839250156881e-02 2.074853507967072e-01 -2.061652019127003e-03
-5.497686458188622e-02 2.264556122626153e-01 -3.030004975578038e-03
-6.219321276643552e-02 2.570870819246944e-01 -4.919562872184091e-03
-7.055008802721008e-02 2.932885872594672e-01 -7.613853810523707e-03
-7.819561362453498e-02 3.267992022917258e-01 -1.049824163865765e-02
-8.325200100950880e-02 3.490426534657216e-01 -1.259757850682730e-02
-8.637303015425446e-02 3.627725964940819e-01 -1.396112398844984e-02
-9.396074792529241e-02 3.960681825439796e-01 -1.746614444494821e-02
-1.064635925479847e-01 4.503700386862184e-01 -2.372266404625956e-02
-1.217630369535383e-01 5.153421311713784e-01 -3.196125442199405e-02
-1.365359886699535e-01 5.761917810763293e-01 -4.030214152290901e-02
-1.467045039416643e-01 6.169313021830569e-01 -4.617679927464247e-02
3.314348905503066e-01 3.448437791275699e-01 3.518161777661089e-02
2.825783558009820e-01 3.243036374291369e-01 2.674279065942464e-02
2.161263843430333e-01 2.920658863059424e-01 1.602482145724871e-02
1.541111118663162e-01 2.556591306377134e-01 7.068106049577416e-03
1.096168011434743e-01 2.237706611525195e-01 1.514211421045353e-03
8.572308691590436e-02 2.036276043232873e-01 -1.053777800524180e-03
7.974904260474347e-02 1.981477405024276e-01 -1.639352753013412e-03
7.754481636538413e-02 1.960737008537011e-01 -1.849040563483229e-03
7.418102682155825e-02 1.928510071206485e-01 -2.162127918099443e-03
7.048367217665685e-02 1.892242746290006e-01 -2.496279662254963e-03
6.729824066264167e-02 1.860244897134440e-01 -2.775435544871918e-03
6.529678281197748e-02 1.839764942188022e-01 -2.946547969017388e-03
6.259138479748061e-02 1.811598954796679e-01 -3.172410127467273e-03
5.412563945783933e-02 1.719553816563906e-01 -3.836444473382272e-03
4.222715432684609e-02 1.578376051283930e-01 -4.647867035132869e-03
3.056026434708514e-02 1.422561461207357e-01 -5.281191768628624e-03
2.167772416784275e-02 1.288166858410286e-01 -5.635033005777501e-03
1.664069072252816e-02 1.203833236885665e-01 -5.778860731421531e-03
1.406871617149708e-02 1.157949470510281e-01 -5.833009364792474e-03
8.934488745276137e-03 1.059384509153531e-01 -5.858436917152154e-03
2.348345899724547e-03 9.136400620827423e-02 -5.660176436149023e-03
-3.202651427762326e-03 7.607788023453121e-02 -5.147525038545098e-03
-6.628855951739121e-03 6.361042051093124e-02 -4.497514054773610e-03
-8.170670956032133e-03 5.614927461857833e-02 -4.009363824086343e-03
-8.507352222772657e-03 5.419922971520785e-02 -3.869675000445660e-03
-8.611420430913896e-03 5.356090313538597e-02 -3.822868851832695e-03
-8.766375569226825e-03 5.257344799194152e-02 -3.749416706796183e-03
-8.930998941120816e-03 5.146854176383486e-02 -3.665727203649105e-03
-9.067720240543475e-03 5.049924963425678e-02 -3.591009930755895e-03
-9.151059098088943e-03 4.988157188678355e-02 -3.542765506909795e-03
-9.551794945432401e-03 4.652235552190498e-02 -3.271861697924372e-03
-1.021056722030494e-02 3.465720322492094e-02 -2.204444803528993e-03
-9.023003702432253e-03 1.949559741811036e-02 -6.376235472949077e-04
-5.703444546554193e-03 7.445472976492118e-03 5.761870258398361e-04
-2.275936804844059e-03 1.472098851524217e-03 7.441313357858803e-04
-3.882025864728397e-04 5.269399335605662e-05 2.212187973933410e-04
-3.297991882840190e-04 1.440826201369871e-04 -1.045574766065371e-04
-2.165204869856413e-03 2.397259303254240e-03 -1.180425768261273e-04
-6.604853367762509e-03 1.102928070325437e-02 1.048085349554917e-03
-1.382282120999612e-02 2.778216652508125e-02 3.856196236982967e-03
-2.205579334536911e-02 4.832253678706683e-02 7.415741684107857e-03
-2.820368286961306e-02 6.411385758026689e-02 1.012324096946049e-02
-3.193033035612686e-02 7.379599020595701e-02 1.175744875425444e-02
-4.095149399352882e-02 9.744373840195147e-02 1.564643850183778e-02
-5.684249547701192e-02 1.394398413259751e-01 2.214147482871720e-02
-7.726369315721748e-02 1.934476560334375e-01 2.963234236229972e-02
-9.732289092910751e-02 2.461283595485703e-01 3.592021475111373e-02
-1.110827167173730e-01 2.819230194816632e-01 3.957368778009229e-02
-1.269563620434160e-01 3.227893763949460e-01 4.308714181834361e-02
-1.297819443514496e-01 3.300109892541047e-01 4.363142516378815e-02
-1.342246805944107e-01 3.413315847671176e-01 4.443661788839748e-02
-1.393002292583475e-01 3.542121952946425e-01 4.527998552722678e-02
-1.438446980645939e-01 3.656961752090973e-01 4.596501878856962e-02
-1.467859362136189e-01 3.731035335143877e-01 4.637269745869332e-02
-1.149951465932260e-01 2.920404141818457e-01 4.051057376436251e-02
-1.165539539593474e-01 2.960634860865367e-01 4.087104955109488e-02
-1.189968368892018e-01 3.023589141682996e-01 4.142118828878782e-02
-1.217765116118713e-01 3.095081576288601e-01 4.202508934004801e-02
-1.242561020094279e-01 3.158726491629050e-01 4.254382085459607e-02
-1.258566406846862e-01 3.199742366519614e-01 4.286859097650275e-02
-1.502263450802257e-01 3.817550949167528e-01 4.681420842997674e-02
-1.612526081535062e-01 4.095588211237199e-01 4.798587384238928e-02
-1.789531234973065e-01 4.543691833455229e-01 4.913955902332390e-02
-1.997404142984640e-01 5.071155681700950e-01 4.945700389177610e-02
-2.188857167660418e-01 5.556690302852247e-01 4.886372002912509e-02
-2.315545027882884e-01 5.877281428905581e-01 4.804932348265467e-02
-2.393617881953554e-01 6.074435369083258e-01 4.739228519536809e-02
-2.582629284630269e-01 6.550068104187163e-01 4.534619577729693e-02
-2.890226444811796e-01 7.317772636683028e-01 4.077414257224810e-02
-3.257776609247856e-01 8.222467394706574e-01 3.357794249487434e-02
-3.602034285750335e-01 9.055530492799206e-01 2.540044538877240e-02
-3.832723620343172e-01 9.605466868998309e-01 1.925546537898271e-02
3.340794786011340e-01 3.500289403071059e-01 3.478640031475955e-02
2.849123069155434e-01 3.291654836429539e-01 2.625484920188370e-02
2.180455311966998e-01 2.964741958750681e-01 1.545064024653797e-02
1.556472463301396e-01 2.596135789412474e-01 6.467142707178297e-03
1.108736205033176e-01 2.273597466981440e-01 9.374114486551122e-04
8.682330175429620e-02 2.069936164060101e-01 -1.597788701332092e-03
8.080868505118399e-02 2.014533921202882e-01 -2.172557612807324e-03
7.858929495911871e-02 1.993565031115683e-01 -2.377970364580761e-03
7.520213778483065e-02 1.960982834474749e-01 -2.684224236613630e-03
7.147875030385309e-02 1.924315170665861e-01 -3.010421446528966e-03
6.827056473609672e-02 1.891963415778126e-01 -3.282340158939689e-03
6.625464058451747e-02 1.871256506062838e-01 -3.448718587453214e-03
6.352946155321149e-02 1.842777711389936e-01 -3.667947087771850e-03
5.499985887307135e-02 1.749703173369020e-01 -4.309408909998425e-03
4.300497062830622e-02 1.606915305482137e-01 -5.084122666485058e-03
3.123203506502670e-02 1.449256878464488e-01 -5.675291681377814e-03
2.225640830000419e-02 1.313190865152924e-01 -5.992745412630285e-03
1.715928794738963e-02 1.227758145236464e-01 -6.114365887484041e-03
1.455403660145771e-02 1.181257596331996e-01 -6.156731084224987e-03
9.350325530889658e-03 1.081330609096068e-01 -6.156443305648907e-03
2.667387553870193e-03 9.334752427608806e-02 -5.918910685252854e-03
-2.976942729475129e-03 7.782610481269858e-02 -5.363488375536463e-03
-6.472435678760324e-03 6.515452884064576e-02 -4.677426930971507e-03
-8.052463010419508e-03 5.756511074056003e-02 -4.167223971922596e-03
-8.398697479975958e-03 5.558069375216834e-02 -4.021715300286388e-03
-8.505852125748392e-03 5.493103490373696e-02 -3.972999195486437e-03
-8.665541632622842e-03 5.392596892767465e-02 -3.896587771443194e-03
-8.835403913866280e-03 5.280123921413327e-02 -3.809580336270102e-03
-8.976669430752371e-03 5.181445196830514e-02 -3.731946652475671e-03
-9.062878550454456e-03 5.118557350571284e-02 -3.681841007553643e-03
-9.478867597519425e-03 4.776470776988606e-02 -3.400778588526165e-03
-1.018622548325537e-02 3.567046580066224e-02 -2.297049003468388e-03
-9.045416118556471e-03 2.018006060325361e-02 -6.833802057748528e-04
-5.741793439564352e-03 7.810147721496463e-03 5.661460370660620e-04
-2.301269716289633e-03 1.609616839499672e-03 7.475450905793934e-04
-3.941707399314903e-04 7.667591244453487e-05 2.229822544155269e-04
-3.368377312703841e-04 1.308279555878311e-04 -1.154881351954629e-04
-2.216137663427126e-03 2.388678270526967e-03 -1.706942763277652e-04
-6.771158265062444e-03 1.119839519684074e-02 9.371402828310949e-04
-1.418181571527760e-02 2.836917023674485e-02 3.688625698098136e-03
-2.263424353663801e-02 4.943955250214771e-02 7.205571219920159e-03
-2.894435593556338e-02 6.563608198829884e-02 9.889190735281161e-03
-3.276847209623351e-02 7.556389285802739e-02 1.151114030605704e-02
-4.202261630115900e-02 9.980015425503386e-02 1.537551486102551e-02
-5.831318165409183e-02 1.427938216532685e-01 2.183917668978452e-02
-7.922668546936928e-02 1.979832202715042e-01 2.930363214307441e-02
-9.974564159296695e-02 2.516957067073737e-01 3.557491110266753e-02
-1.138068807419900e-01 2.881177814781079e-01 3.922057296814430e-02
-1.300138023354571e-01 3.296220295355818e-01 4.272759567976259e-02
-1.328970600317166e-01 3.369472246628464e-01 4.327096801040753e-02
-1.374294597686068e-01 3.484244604070437e-01 4.407485091007324e-02
-1.426059047360868e-01 3.614746026092599e-01 4.491689130276555e-02
-1.472393082780854e-01 3.731017399253593e-01 4.560087556234649e-02
-1.502373933181752e-01 3.805973523880795e-01 4.600793973752459e-02
-1.178029036557201e-01 2.984011002764904e-01 4.015564617504808e-02
-1.193947538148424e-01 3.024887108755974e-01 4.051544399862728e-02
-1.218891173743675e-01 3.088834674770178e-01 4.106456849065410e-02
-1.247269196109778e-01 3.161430229629538e-01 4.166738400985359e-02
-1.272579558554225e-01 3.226034644786809e-01 4.218520576436902e-02
-1.288914977804730e-01 3.267657497321876e-01 4.250941670882824e-02
-1.537439269272614e-01 3.893491511501943e-01 4.644826704559968e-02
-1.649841722483045e-01 4.174725498185377e-01 4.760584212786689e-02
-1.830336733549169e-01 4.627905746259712e-01 4.870798985522562e-02
-2.042366146277905e-01 5.161213537369322e-01 4.892856965309100e-02
-2.237676880835049e-01 5.651990514550365e-01 4.821994503448046e-02
-2.366922760623014e-01 5.975966777481613e-01 4.731892263573556e-02
-2.446571543616172e-01 6.175171251201159e-01 4.660530466349933e-02
-2.639389817775226e-01 6.655650086670888e-01 4.441456513577968e-02
-2.953131918443659e-01 7.430865038559089e-01 3.959289356938456e-02
-3.327896087396232e-01 8.343894983491675e-01 3.209285907340309e-02
-3.678745258409044e-01 9.184120105736231e-01 2.364050463256007e-02
-3.913749134589619e-01 9.738506505143305e-01 1.732218129435736e-02
6.279220303417365e-02 1.430649414196644e-01 -2.105527219686820e-03
5.557659898110545e-02 1.391772855453830e-01 -3.411733573591036e-03
4.525995483893508e-02 1.330931621546997e-01 -5.329574294957951e-03
3.485768452197846e-02 1.261498337261381e-01 -7.300989318787643e-03
2.664677193100851e-02 1.199054946780537e-01 -8.851511312089499e-03
2.182509314228154e-02 1.158356957809462e-01 -9.740127122375597e-03
2.894832508580802e-03 9.561179909587458e-02 -1.263864245584223e-02
2.390345217541667e-03 9.494984896573699e-02 -1.269024101349636e-02
1.613091963339808e-03 9.391446047706797e-02 -1.276550040665292e-02
7.476895971065822e-04 9.273899477162051e-02 -1.284291133386972e-02
-8.012973803928070e-06 9.169255066268200e-02 -1.290467020404584e-02
-4.880001213344309e-04 9.101803182279589e-02 -1.294092053602647e-02
1.998983635016738e-02 1.141940723286444e-01 -1.007034312419641e-02
1.730527469929333e-02 1.116901957505336e-01 -1.054220547944063e-02
1.333683619805293e-02 1.077415879191086e-01 -1.120731806458863e-02
9.144991718498363e-03 1.032051694004237e-01 -1.185084743021925e-02
5.666436464851432e-03 9.911278999073192e-02 -1.232032756006340e-02
3.538804248938709e-03 9.644546503131646e-02 -1.256978289623767e-02
2.038121110064977e-01 1.940125035314017e-01 1.696760021467192e-02
1.779490659605389e-01 1.864916497039122e-01 1.425363296820414e-02
1.421703650942443e-01 1.752230438509363e-01 9.994133325950116e-03
1.078295158423883e-01 1.629880628460704e-01 5.256525051606786e-03
8.224663757569362e-02 1.524235258261189e-01 1.244604604073274e-03
6.797483135503102e-02 1.457031007931977e-01 -1.187899371913659e-03
-1.599457959624154e-02 -1.078040495653187e-03 -4.488538942045039e-03
-1.439745510472779e-02 -3.881354168908446e-03 -3.653257929975950e-03
-1.144514890695258e-02 -6.559664425614509e-03 -2.444370496906600e-03
-7.490103470951859e-03 -6.787265362791728e-03 -1.271443474244904e-03
-3.496961681863968e-03 -4.188525250651276e-03 -4.600894233846020e-04
-7.165512123020572e-04 -9.925631890758124e-04 -7.674883389086062e-05
-1.232560073496924e-03 8.994962440562382e-02 -1.299267319337716e-02
-3.631663213523706e-03 8.623352563677644e-02 -1.312279680526451e-02
-7.011527927029970e-03 8.015993143967914e-02 -1.319407498457537e-02
-1.031936911238251e-02 7.296522300847563e-02 -1.309630023795805e-02
-1.281232760300643e-02 6.637789250508863e-02 -1.286609400025185e-02
-1.420314114750121e-02 6.207774667566734e-02 -1.265347156633290e-02
-1.480944567569975e-02 6.001606111908664e-02 -1.253553794923512e-02
-1.587234000514381e-02 5.604822611949956e-02 -1.228102295258893e-02
-1.727175769303513e-02 4.986137830355808e-02 -1.181563288771237e-02
-1.848778346580932e-02 4.292813370944548e-02 -1.120002988498570e-02
-1.925314066533335e-02 3.689797046599086e-02 -1.058605679783398e-02
-1.959519599639820e-02 3.310826413451251e-02 -1.016262347413743e-02
-1.974926228427065e-02 3.081258611397286e-02 -9.891678818036098e-03
-1.994674481575975e-02 2.546212520916413e-02 -9.216054231856674e-03
-1.978978825106653e-02 1.762737790805879e-02 -8.103937347001988e-03
-1.896806864110362e-02 9.710434806461721e-03 -6.795593472222805e-03
-1.770575986141132e-02 3.722185797901401e-03 -5.625496665416563e-03
-1.664660994515393e-02 4.709378295975064e-04 -4.883956934484956e-03
-8.621461214765591e-03 3.289659660037031e-02 2.290899670519764e-03
-9.153257138605708e-03 3.573329860470742e-02 2.491852105659831e-03
-1.001224092571207e-02 4.037374006306527e-02 2.811367833224665e-03
-1.102772882219150e-02 4.593526180581914e-02 3.179184941899393e-03
-1.196789328782921e-02 5.114119405436890e-02 3.508593528284365e-03
-1.259198040481890e-02 5.462078080278499e-02 3.720792774380755e-03
-4.354116666883512e-03 1.187185427196730e-02 6.811154625623317e-04
-4.864471816281968e-03 1.414574050587558e-02 8.630618955685065e-04
-5.704236817087538e-03 1.807050193175402e-02 1.174370156697080e-03
-6.719596561616581e-03 2.305651840955930e-02 1.561569357917847e-03
-7.679556281555810e-03 2.795567727091375e-02 1.930817816546693e-03
-8.326556187314926e-03 3.133731849712668e-02 2.178634233089838e-03
-1.038325691919834e-04 -3.299338595474932e-05 -2.866550405045132e-05
-5.467650172676641e-04 1.337958564782693e-04 -1.030192808997299e-04
-1.321651863400802e-03 1.339063778826310e-03 -9.664663206976343e-05
-2.326353531766079e-03 4.063292383948924e-03 7.164222320099611e-05
-3.336111312585210e-03 7.661035368217495e-03 3.454194017749046e-04
-4.046059498770405e-03 1.054773755101251e-02 5.750675567881558e-04
-2.034453932576796e-02 9.850864905152090e-02 5.869159490810461e-03
-2.081108387903452e-02 1.011566261891942e-01 5.968635304967052e-03
-2.154964747031252e-02 1.053452691362228e-01 6.119232361118776e-03
-2.240105474092768e-02 1.101679108693949e-01 6.282446437843703e-03
-2.317045250998762e-02 1.145195340159850e-01 6.420447008540719e-03
-2.367205125482807e-02 1.173527970782081e-01 6.505602362555152e-03
-1.297284877942095e-02 5.675207170845670e-02 3.847633689883168e-03
-1.388870399656383e-02 6.189702175859629e-02 4.144092320430559e-03
-1.538087457176518e-02 7.032455025544804e-02 4.600299850672229e-03
-1.716379227301557e-02 8.043758039596971e-02 5.100438315711386e-03
-1.883116661195305e-02 8.991184422551979e-02 5.523161378725661e-03
-1.994620425392846e-02 9.624678744292553e-02 5.781552805508738e-03
-3.064318301925417e-02 1.587299654859112e-01 6.966932286253780e-03