<?xml version="1.0" ?> 
<!-- 
# vtk DataFile Version 3.0
-->
<VTKFile type="UnstructuredGrid" version="0.1" compressor="vtkZLibDataCompressor" byte_order="LittleEndian">
  <UnstructuredGrid>
    <FieldData>
      <DataArray type="Float64" Name="TIME" NumberOfTuples="1" format="ascii">
3
      </DataArray>
    </FieldData>

    <Piece NumberOfPoints="432" NumberOfCells="0" >
      <Points>
        <DataArray type="Float64" NumberOfComponents="3" format="ascii">
9.961508145972252e-01 8.592086226024845e-02 1.528071566903062e-02
9.887897073711956e-01 1.468037178864243e-01 7.666788650934654e-02
9.698962622537908e-01 2.404644815942518e-01 1.723189298689200e-01
9.380536336930722e-01 3.436060835709402e-01 2.803550731636581e-01
9.009239073701820e-01 4.317150572693559e-01 3.760244732140129e-01
8.728306729741147e-01 4.862862962232773e-01 4.374325130705180e-01
8.645372169543546e-01 5.009833640985419e-01 4.543160180413865e-01
8.613235470217895e-01 5.065291381708883e-01 4.607288499074974e-01
8.562476935757146e-01 5.151277191794387e-01 4.707191468495250e-01
8.504143017171248e-01 5.247770947824838e-01 4.820011842343861e-01
8.451597461372596e-01 5.332663647181585e-01 4.919911575819921e-01
8.417429166174110e-01 5.386878672332490e-01 4.984036215660428e-01
8.369740717620143e-01 5.461294004394486e-01 5.072479512151478e-01
8.208190763326847e-01 5.703223022532734e-01 5.363609104801736e-01
7.942732942844649e-01 6.070417183346181e-01 5.817116896770539e-01
7.623155153791229e-01 6.469935789125921e-01 6.329207197335958e-01
7.323040534311026e-01 6.809330643160265e-01 6.782591714366593e-01
7.122090597310894e-01 7.019655697919733e-01 7.073581160477863e-01
7.008280738556409e-01 7.133275282405195e-01 7.234410182242363e-01
6.750424117560742e-01 7.377186261707828e-01 7.589496380164499e-01
6.331455164199606e-01 7.737812736017835e-01 8.142762118776878e-01
5.834756456364070e-01 8.116008737485321e-01 8.767680166441256e-01
5.375809239492999e-01 8.424444628623822e-01 9.321114259419293e-01
5.072502867323505e-01 8.609022139923966e-01 9.676391852948852e-01
4.989108780625087e-01 8.657262322388349e-01 9.772781523082409e-01
4.961413847090663e-01 8.673050550132074e-01 9.804675735317165e-01
4.918169520841263e-01 8.697474089375292e-01 9.854363280879123e-01
4.869189222602973e-01 8.724802717602733e-01 9.910476635530109e-01
4.825691589487003e-01 8.748777159706708e-01 9.960164798060829e-01
4.797708681112122e-01 8.764054826174402e-01 9.992059711703659e-01
4.641739722219643e-01 8.847150706998458e-01 1.016885236121368e+00
4.030608978006651e-01 9.140673022005500e-01 1.084712850232482e+00
3.043552951980907e-01 9.515847064974028e-01 1.190380902982318e+00
1.889632452847260e-01 9.814319600937836e-01 1.309702054430989e+00
8.451378512843108e-02 9.962755514098970e-01 1.415336657292568e+00
1.687073982608985e-02 9.998507964269235e-01 1.483126243511407e+00
1.135060971593723e-01 2.999999999999999e-01 2.507074622321568e+00
1.677581227067583e-01 2.999999999999999e-01 2.535492349989220e+00
2.522761627833781e-01 3.000000000000000e-01 2.579763704315047e+00
3.477238372166552e-01 2.999999999999999e-01 2.629760105208663e+00
4.322418772932615e-01 3.000000000000000e-01 2.674031459534515e+00
4.864939028406323e-01 3.000000000000000e-01 2.702449187202197e+00
5.168826214492115e-01 3.000000000000000e-01 2.718367087425746e+00
5.846976533834305e-01 3.000000000000000e-01 2.753889247010356e+00
6.903452034791921e-01 2.999999999999999e-01 2.809228439917691e+00
8.096547965207874e-01 2.999999999999999e-01 2.871723941034747e+00
9.153023466165575e-01 3.000000000000000e-01 2.927063133942068e+00
9.831173785507854e-01 3.000000000000000e-01 2.962585293526660e+00
1.057768500458407e+00 3.000000000000000e-01 3.001688262144921e+00
1.070715006554950e+00 2.999999999999999e-01 3.008469765338345e+00
1.090884084300523e+00 3.000000000000000e-01 3.019034520347923e+00
1.113661370244847e+00 3.000000000000000e-01 3.030965479652083e+00
1.133830447990420e+00 3.000000000000000e-01 3.041530234661658e+00
1.146776954086965e+00 2.999999999999999e-01 3.048311737855079e+00
1.001841740521729e+00 3.000000000000000e-01 2.972393292654295e+00
1.009239744005451e+00 3.000000000000000e-01 2.976268437336243e+00
1.020764931288608e+00 3.000000000000000e-01 2.982305440198846e+00
1.033780523256763e+00 2.999999999999999e-01 2.989123131229781e+00
1.045305710539920e+00 3.000000000000000e-01 2.995160134092385e+00
1.052703714023642e+00 3.000000000000000e-01 2.999035278774333e+00
1.161817835014451e+00 3.000000000000000e-01 3.056190294531372e+00
1.209288357368413e+00 3.000000000000000e-01 3.081055806240567e+00
1.283241642435455e+00 3.000000000000000e-01 3.119793241275662e+00
1.366758357564573e+00 3.000000000000000e-01 3.163540092057572e+00
1.440711642631604e+00 3.000000000000000e-01 3.202277527092688e+00
1.488182164985553e+00 3.000000000000000e-01 3.227143038801907e+00
1.516882621449212e+00 3.000000000000000e-01 3.242176611235258e+00
1.584697653383433e+00 3.000000000000000e-01 3.277698770819866e+00
1.690345203479196e+00 3.000000000000000e-01 3.333037963727203e+00
1.809654796520792e+00 3.000000000000000e-01 3.395533464844262e+00
1.915302346616560e+00 3.000000000000000e-01 3.450872657751589e+00
1.983117378550786e+00 3.000000000000000e-01 3.486394817336187e+00
9.961508145975779e-01 8.592086225564063e-02 5.015280715669051e+00
9.887897073716787e-01 1.468037178823039e-01 5.076667886509384e+00
9.698962622543036e-01 2.404644815910580e-01 5.172318929868813e+00
9.380536336934090e-01 3.436060835689309e-01 5.280355073163236e+00
9.009239073702221e-01 4.317150572684103e-01 5.376024473213271e+00
8.728306729739144e-01 4.862862962229748e-01 5.437432513069590e+00
8.645372169540647e-01 5.009833640984385e-01 5.454316018040451e+00
8.613235470213982e-01 5.065291381709724e-01 5.460728849906690e+00
8.562476935751622e-01 5.151277191798120e-01 5.470719146848922e+00
8.504143017163849e-01 5.247770947831786e-01 5.482001184234013e+00
8.451597461363493e-01 5.332663647191331e-01 5.491991157581827e+00
8.417429166163889e-01 5.386878672344007e-01 5.498403621566010e+00
8.369740717609830e-01 5.461294004406132e-01 5.507247951215027e+00
8.208190763317383e-01 5.703223022543119e-01 5.536360910479583e+00
7.942732942836876e-01 6.070417183354412e-01 5.581711689675767e+00
7.623155153785933e-01 6.469935789131366e-01 5.632920719731584e+00
7.323040534308457e-01 6.809330643162858e-01 5.678259171434071e+00
7.122090597310354e-01 7.019655697920274e-01 5.707358116044865e+00
7.008280738556323e-01 7.133275282405286e-01 5.723441018221251e+00
6.750424117560395e-01 7.377186261708233e-01 5.758949638013529e+00
6.331455164199137e-01 7.737812736018588e-01 5.814276211874900e+00
5.834756456363795e-01 8.116008737486285e-01 5.876768016641527e+00
5.375809239493141e-01 8.424444628624845e-01 5.932111425939527e+00
5.072502867324002e-01 8.609022139924971e-01 5.967639185292620e+00
4.989108780625064e-01 8.657262322389699e-01 5.977278152306085e+00
4.961413847088160e-01 8.673050550134851e-01 5.980467573529864e+00
4.918169520834873e-01 8.697474089380252e-01 5.985436328086531e+00
4.869189222592172e-01 8.724802717610116e-01 5.991047663552161e+00
4.825691589472274e-01 8.748777159716193e-01 5.996016479805704e+00
4.797708681094859e-01 8.764054826185215e-01 5.999205971170290e+00
4.641739722202320e-01 8.847150707008976e-01 6.016885236121376e+00
4.030608977991809e-01 9.140673022013622e-01 6.084712850232536e+00
3.043552951970307e-01 9.515847064978846e-01 6.190380902982448e+00
1.889632452841438e-01 9.814319600939788e-01 6.309702054431162e+00
8.451378512821399e-02 9.962755514099378e-01 6.415336657292694e+00
1.687073982605329e-02 9.998507964269251e-01 6.483126243511438e+00
1.135060971593723e-01 2.999999999999999e-01 7.507074622321567e+00
1.677581227067584e-01 2.999999999999999e-01 7.535492349989219e+00
2.522761627833782e-01 3.000000000000000e-01 7.579763704315047e+00
3.477238372166552e-01 3.000000000000000e-01 7.629760105208663e+00
4.322418772932615e-01 3.000000000000000e-01 7.674031459534515e+00
4.864939028406323e-01 3.000000000000000e-01 7.702449187202197e+00
5.168826214492115e-01 3.000000000000000e-01 7.718367087425746e+00
5.846976533834306e-01 3.000000000000000e-01 7.753889247010356e+00
6.903452034791924e-01 3.000000000000000e-01 7.809228439917693e+00
8.096547965207879e-01 3.000000000000000e-01 7.871723941034748e+00
9.153023466165575e-01 3.000000000000000e-01 7.927063133942069e+00
9.831173785507861e-01 3.000000000000000e-01 7.962585293526661e+00
1.057768500458404e+00 3.000000000000000e-01 8.001688262144921e+00
1.070715006554948e+00 3.000000000000000e-01 8.008469765338344e+00
1.090884084300521e+00 3.000000000000000e-01 8.019034520347923e+00
1.113661370244846e+00 3.000000000000000e-01 8.030965479652084e+00
1.133830447990420e+00 3.000000000000000e-01 8.041530234661657e+00
1.146776954086965e+00 3.000000000000000e-01 8.048311737855082e+00
1.001841740521729e+00 2.999999999999999e-01 7.972393292654295e+00
1.009239744005451e+00 3.000000000000000e-01 7.976268437336243e+00
1.020764931288607e+00 3.000000000000000e-01 7.982305440198846e+00
1.033780523256761e+00 3.000000000000000e-01 7.989123131229781e+00
1.045305710539918e+00 2.999999999999999e-01 7.995160134092385e+00
1.052703714023640e+00 3.000000000000000e-01 7.999035278774334e+00
1.161817835014451e+00 3.000000000000000e-01 8.056190294531373e+00
1.209288357368413e+00 3.000000000000000e-01 8.081055806240567e+00
1.283241642435455e+00 3.000000000000000e-01 8.119793241275664e+00
1.366758357564573e+00 3.000000000000000e-01 8.163540092057572e+00
1.440711642631603e+00 3.000000000000000e-01 8.202277527092688e+00
1.488182164985553e+00 3.000000000000000e-01 8.227143038801907e+00
1.516882621449212e+00 3.000000000000000e-01 8.242176611235257e+00
1.584697653383433e+00 3.000000000000000e-01 8.277698770819866e+00
1.690345203479196e+00 2.999999999999999e-01 8.333037963727202e+00
1.809654796520792e+00 3.000000000000000e-01 8.395533464844263e+00
1.915302346616560e+00 3.000000000000000e-01 8.450872657751589e+00
1.983117378550787e+00 3.000000000000000e-01 8.486394817336187e+00
[...]
  <PointData>
        <DataArray type="Float64" Name="displacement" NumberOfComponents="3" format="ascii">
2.697936803505675e-01 2.735914014163633e-01 2.044368086961446e-02
2.239668922230341e-01 2.528549288457526e-01 1.517293126759678e-02
1.624105091911798e-01 2.213699306165942e-01 8.243430888841302e-03
1.061338206204921e-01 1.871857745706009e-01 2.143091271279540e-03
6.685956719113706e-02 1.583028419748003e-01 -1.882836965530599e-03
4.636447576936198e-02 1.405245578093636e-01 -3.852627001511399e-03
4.132957196761955e-02 1.357475551361327e-01 -4.315998442051161e-03
3.948245825773622e-02 1.339460220842956e-01 -4.483490697394510e-03
3.667543450652644e-02 1.311538017894145e-01 -4.735228208212039e-03
3.360741797443501e-02 1.280217092973117e-01 -5.006225958766264e-03
3.097971299842317e-02 1.252672466974049e-01 -5.234593444623514e-03
2.933645991173883e-02 1.235086389177241e-01 -5.375517216843317e-03
2.712507401331521e-02 1.210953240368046e-01 -5.562708349377332e-03
2.028692169172142e-02 1.132529637423370e-01 -6.121388138062511e-03
1.092659682390729e-02 1.013551119972895e-01 -6.823263342997543e-03
2.124765139622453e-03 8.840501795833156e-02 -7.385341483454932e-03
-4.227061096997331e-03 7.738678291813172e-02 -7.695083703226802e-03
-7.644966959897470e-03 7.054442504632430e-02 -7.807962573163185e-03
-9.331451877174102e-03 6.684433316890137e-02 -7.845197383718472e-03
-1.266880786222724e-02 5.894073801842103e-02 -7.903801138652522e-03
-1.687492374088029e-02 4.739093240642378e-02 -7.935402451736961e-03
-2.026029132135188e-02 3.551832590383064e-02 -7.877092783154738e-03
-2.213935157823799e-02 2.609523313036111e-02 -7.735658303930193e-03
-2.283116746996794e-02 2.060941606334454e-02 -7.597544317417659e-03
-2.295297811434016e-02 1.919907698319590e-02 -7.553438150749270e-03
-2.298724963874166e-02 1.873983571499394e-02 -7.538208933601465e-03
-2.303471994738143e-02 1.803177847484072e-02 -7.513850246391063e-03
-2.307972286318632e-02 1.724301114687932e-02 -7.485409117620523e-03
-2.311201681948166e-02 1.655421445688765e-02 -7.459394336462255e-03
-2.312903493222346e-02 1.611686976786242e-02 -7.442282369758857e-03
-2.317150088584530e-02 1.376111324955476e-02 -7.341519519168394e-03
-2.256002870965329e-02 5.822924947777586e-03 -6.859018045063170e-03
-1.943796665607306e-02 -2.903029460310180e-03 -5.783741440479995e-03
-1.335923748905110e-02 -7.054639031462751e-03 -4.049789556277883e-03
-6.340326849112565e-03 -5.310546786055026e-03 -2.008581405255727e-03
-1.298677294955036e-03 -1.345741475779372e-03 -4.279494826959773e-04
-1.275962682481674e-04 4.081208605594133e-05 -1.094495590221456e-04
-7.372863787818429e-04 8.613725965471719e-04 -4.534344486106789e-04
-2.014785846036926e-03 4.243519743099500e-03 -7.203082071756128e-04
-3.977262458741304e-03 1.116406387498786e-02 -7.092312208043516e-04
-6.215139104510103e-03 2.005791777236821e-02 -5.042591324970758e-04
-7.916645116092691e-03 2.714452583907656e-02 -3.118206147143532e-04
-8.964580435465774e-03 3.158683746543661e-02 -1.920496305007902e-04
-1.155879375144386e-02 4.272946224423341e-02 8.567016764970958e-05
-1.634078672476968e-02 6.348927905381846e-02 4.713533117315372e-04
-2.290359359075622e-02 9.195340910727878e-02 6.788905682793001e-04
-2.982207452117080e-02 1.216418028878436e-01 5.015356721154163e-04
-3.484517887718663e-02 1.429349836448042e-01 1.391591633272959e-04
-4.092709897982627e-02 1.684094200528830e-01 -5.379159355243246e-04
-4.204252500350658e-02 1.730452190067712e-01 -6.885727947998355e-04
-4.381666015285757e-02 1.803958840473386e-01 -9.443092393275343e-04
-4.587412839650429e-02 1.888858110500712e-01 -1.265026694003968e-03
-4.774427352386268e-02 1.965709206376335e-01 -1.578382793369304e-03
-4.896884960128589e-02 2.015869367422387e-01 -1.794545223554156e-03
-3.631538019526082e-02 1.491238053007810e-01 -1.442045861388408e-06
-3.690636895525101e-02 1.516060219663924e-01 -6.219711057475763e-05
-3.783855002782788e-02 1.555148210845841e-01 -1.628847696495406e-04
-3.890821100682362e-02 1.599903764650630e-01 -2.856438569671660e-04
-3.987048098979007e-02 1.640077541275872e-01 -4.025669953775513e-04
-4.049567667550047e-02 1.666134095669086e-01 -4.817795525178248e-04
-5.040839250156903e-02 2.074853507967069e-01 -2.061652019126559e-03
-5.497686458188644e-02 2.264556122626150e-01 -3.030004975577150e-03
-6.219321276643575e-02 2.570870819246941e-01 -4.919562872184091e-03
-7.055008802721030e-02 2.932885872594670e-01 -7.613853810523707e-03
-7.819561362453520e-02 3.267992022917255e-01 -1.049824163865720e-02
-8.325200100950902e-02 3.490426534657211e-01 -1.259757850682730e-02
-8.637303015425446e-02 3.627725964940816e-01 -1.396112398844940e-02
-9.396074792529263e-02 3.960681825439792e-01 -1.746614444494821e-02
-1.064635925479849e-01 4.503700386862180e-01 -2.372266404626000e-02
-1.217630369535383e-01 5.153421311713779e-01 -3.196125442199360e-02
-1.365359886699540e-01 5.761917810763286e-01 -4.030214152290812e-02
-1.467045039416646e-01 6.169313021830560e-01 -4.617679927464202e-02
3.314402161165053e-01 3.448545162205440e-01 3.518251997534350e-02
2.825936187177789e-01 3.243169744528805e-01 2.674537705130042e-02
2.161493284483041e-01 2.920800883479013e-01 1.602870891303265e-02
1.541341637595769e-01 2.556712680032649e-01 7.072017393127794e-03
1.096352194156466e-01 2.237799004779897e-01 1.517355728947400e-03
8.573744230501656e-02 2.036351655031868e-01 -1.051300442368230e-03
7.976223498713286e-02 1.981549205051099e-01 -1.637064213057648e-03
7.755753586772374e-02 1.960807180242629e-01 -1.846826300460513e-03
7.419301691919888e-02 1.928577873163800e-01 -2.160027850204749e-03
7.049485240377606e-02 1.892308135295424e-01 -2.494305795249119e-03
6.730871921806370e-02 1.860308401288393e-01 -2.773570445722129e-03
6.530682001593335e-02 1.839827369281344e-01 -2.944750976748622e-03
6.260055159432210e-02 1.811657185119663e-01 -3.170727229737658e-03
5.413197826329053e-02 1.719597912620900e-01 -3.835110706722489e-03
4.222993970880429e-02 1.578404435326844e-01 -4.646928257874272e-03
3.056053862498664e-02 1.422583229076956e-01 -5.280447184550674e-03
2.167735839892682e-02 1.288194510991137e-01 -5.634203567785434e-03
1.664080906818499e-02 1.203871307687461e-01 -5.777834909075352e-03
1.406941867331646e-02 1.157995893247892e-01 -5.831830998392462e-03
8.936460057131557e-03 1.059447911701140e-01 -5.856959719635846e-03
2.351925628766183e-03 9.137220864781281e-02 -5.658364241543090e-03
-3.197752541395427e-03 7.608717584963542e-02 -5.145506879146389e-03
-6.623187234143235e-03 6.361992695120700e-02 -4.495447294647903e-03
-8.164686784542408e-03 5.615860167258957e-02 -4.007323825863551e-03
-8.501300029602088e-03 5.420850063442073e-02 -3.867651510790715e-03
-8.605330524140586e-03 5.357026074910998e-02 -3.820859492769557e-03
-8.760231553832931e-03 5.258293493248201e-02 -3.747430169724453e-03
-8.924800518406106e-03 5.147816644667835e-02 -3.663767585847744e-03
-9.061479468265854e-03 5.050898901655387e-02 -3.589075126780195e-03
-9.144793980629562e-03 4.989138133430460e-02 -3.540847097971422e-03
-9.545468743060281e-03 4.653217510505470e-02 -3.270013134573979e-03
-1.020438989074901e-02 3.466649235970010e-02 -2.202930191418595e-03
-9.017974998599576e-03 1.950285658634632e-02 -6.367490788976582e-04
-5.700452181778171e-03 7.449579562356479e-03 5.763960943365731e-04
-2.274798790075416e-03 1.473554800622723e-03 7.440352275391859e-04
-3.880157553335511e-04 5.291387796413360e-05 2.211695489799936e-04
-3.297991882840329e-04 1.440826201369871e-04 -1.045574766065371e-04
-2.165204869856413e-03 2.397259303254240e-03 -1.180425768252391e-04
-6.604853367762592e-03 1.102928070325432e-02 1.048085349554917e-03
-1.382282120999612e-02 2.778216652508114e-02 3.856196236982967e-03
-2.205579334536917e-02 4.832253678706672e-02 7.415741684107857e-03
-2.820368286961322e-02 6.411385758026678e-02 1.012324096946049e-02
-3.193033035612691e-02 7.379599020595695e-02 1.175744875425533e-02
-4.095149399352893e-02 9.744373840195147e-02 1.564643850183778e-02
-5.684249547701203e-02 1.394398413259750e-01 2.214147482871720e-02
-7.726369315721771e-02 1.934476560334375e-01 2.963234236229972e-02
-9.732289092910784e-02 2.461283595485705e-01 3.592021475111462e-02
-1.110827167173735e-01 2.819230194816635e-01 3.957368778009229e-02
-1.269563620434165e-01 3.227893763949465e-01 4.308714181834361e-02
-1.297819443514502e-01 3.300109892541052e-01 4.363142516378815e-02
-1.342246805944112e-01 3.413315847671181e-01 4.443661788839748e-02
-1.393002292583482e-01 3.542121952946430e-01 4.527998552722678e-02
-1.438446980645945e-01 3.656961752090979e-01 4.596501878856962e-02
-1.467859362136196e-01 3.731035335143884e-01 4.637269745869332e-02
-1.149951465932264e-01 2.920404141818460e-01 4.051057376436251e-02
-1.165539539593479e-01 2.960634860865369e-01 4.087104955109488e-02
-1.189968368892023e-01 3.023589141682999e-01 4.142118828878782e-02
-1.217765116118716e-01 3.095081576288606e-01 4.202508934004801e-02
-1.242561020094284e-01 3.158726491629054e-01 4.254382085459607e-02
-1.258566406846867e-01 3.199742366519618e-01 4.286859097650275e-02
-1.502263450802264e-01 3.817550949167535e-01 4.681420842997674e-02
-1.612526081535068e-01 4.095588211237208e-01 4.798587384238928e-02
-1.789531234973072e-01 4.543691833455239e-01 4.913955902332390e-02
-1.997404142984647e-01 5.071155681700963e-01 4.945700389177610e-02
-2.188857167660427e-01 5.556690302852261e-01 4.886372002912687e-02
-2.315545027882890e-01 5.877281428905596e-01 4.804932348265289e-02
-2.393617881953560e-01 6.074435369083273e-01 4.739228519536809e-02
-2.582629284630276e-01 6.550068104187181e-01 4.534619577729515e-02
-2.890226444811801e-01 7.317772636683045e-01 4.077414257224810e-02
-3.257776609247858e-01 8.222467394706592e-01 3.357794249487256e-02
-3.602034285750335e-01 9.055530492799226e-01 2.540044538877240e-02
-3.832723620343170e-01 9.605466868998327e-01 1.925546537898271e-02
3.340846018911903e-01 3.500390909428407e-01 3.478767403435512e-02
2.849274746220761e-01 3.291782687264917e-01 2.625792208563027e-02
2.180684705051131e-01 2.964879368686840e-01 1.545506956265896e-02
1.556703169512251e-01 2.596254109471622e-01 6.471521486151488e-03
1.108920420351331e-01 2.273688641743692e-01 9.408802903756452e-04
8.683764709622266e-02 2.070011955481434e-01 -1.595097243979993e-03
8.082186451270701e-02 2.014606313956288e-01 -2.170086138500338e-03
7.860200038737397e-02 1.993635952296768e-01 -2.375584934657837e-03
7.521411223582586e-02 1.961051633757692e-01 -2.681971283143625e-03
7.148991347349021e-02 1.924381842226877e-01 -3.008315215193846e-03
6.828102534503178e-02 1.892028459750803e-01 -3.280360707300645e-03
6.626465946587756e-02 1.871320640425019e-01 -3.446818703780608e-03
6.353860775321718e-02 1.842837850740540e-01 -3.666176263822152e-03
5.500617088572535e-02 1.749749843234381e-01 -4.308034187413767e-03
4.300772931836849e-02 1.606947368434074e-01 -5.083208763755565e-03
3.123229987854648e-02 1.449283666683080e-01 -5.674631506588312e-03
2.225606630413568e-02 1.313224800360011e-01 -5.992035935181050e-03
1.715946154177750e-02 1.227803342133253e-01 -6.113472572714329e-03
1.455481510022905e-02 1.181311616579239e-01 -6.155688823522354e-03
9.352412456895665e-03 1.081402417384124e-01 -6.155108785932839e-03
2.671124356099397e-03 9.335662714380444e-02 -5.917248556256638e-03
-2.971865633871973e-03 7.783628593188696e-02 -5.361624598526404e-03
-6.466588792327643e-03 6.516484872804262e-02 -4.675514959032512e-03
-8.046308232008692e-03 5.757518210011869e-02 -4.165337396406343e-03
-8.392477449254920e-03 5.559068820934066e-02 -4.019844738101241e-03
-8.499594850041370e-03 5.494111090287468e-02 -3.971142905276892e-03
-8.659231076556584e-03 5.393616600800499e-02 -3.894754497878239e-03
-8.829040026484325e-03 5.281156441439816e-02 -3.807774164268807e-03
-8.970264267927242e-03 5.182488308229805e-02 -3.730165422402010e-03
-9.056449790570964e-03 5.119606891836359e-02 -3.680076238230967e-03
-9.472384156410663e-03 4.777517357039673e-02 -3.399082796963881e-03
-1.017992420649827e-02 3.568022874047372e-02 -2.295680493523022e-03
-9.040329041979878e-03 2.018750850763196e-02 -6.826316122232612e-04
-5.738807741680840e-03 7.814193411508685e-03 5.662661717966699e-04
-2.300158886003212e-03 1.610951284661710e-03 7.474049345148615e-04
-3.939931613889912e-04 7.685706164994865e-05 2.229236612585339e-04
-3.368377312703702e-04 1.308279555878311e-04 -1.154881351954629e-04
-2.216137663427070e-03 2.388678270527023e-03 -1.706942763277652e-04
-6.771158265062388e-03 1.119839519684074e-02 9.371402828310949e-04
-1.418181571527749e-02 2.836917023674479e-02 3.688625698098136e-03
-2.263424353663790e-02 4.943955250214760e-02 7.205571219920159e-03
-2.894435593556316e-02 6.563608198829873e-02 9.889190735281161e-03
-3.276847209623340e-02 7.556389285802728e-02 1.151114030605882e-02
-4.202261630115900e-02 9.980015425503358e-02 1.537551486102728e-02
-5.831318165409172e-02 1.427938216532681e-01 2.183917668978630e-02
-7.922668546936928e-02 1.979832202715038e-01 2.930363214307796e-02
-9.974564159296684e-02 2.516957067073731e-01 3.557491110267108e-02
-1.138068807419899e-01 2.881177814781071e-01 3.922057296814785e-02
-1.300138023354570e-01 3.296220295355811e-01 4.272759567976614e-02
-1.328970600317165e-01 3.369472246628457e-01 4.327096801041108e-02
-1.374294597686068e-01 3.484244604070431e-01 4.407485091007679e-02
-1.426059047360867e-01 3.614746026092592e-01 4.491689130276910e-02
-1.472393082780853e-01 3.731017399253587e-01 4.560087556235004e-02
-1.502373933181751e-01 3.805973523880788e-01 4.600793973752815e-02
-1.178029036557200e-01 2.984011002764898e-01 4.015564617505163e-02
-1.193947538148424e-01 3.024887108755967e-01 4.051544399863083e-02
-1.218891173743674e-01 3.088834674770172e-01 4.106456849065765e-02
-1.247269196109777e-01 3.161430229629532e-01 4.166738400985714e-02
-1.272579558554224e-01 3.226034644786803e-01 4.218520576437257e-02
-1.288914977804729e-01 3.267657497321870e-01 4.250941670883179e-02
-1.537439269272614e-01 3.893491511501936e-01 4.644826704560323e-02
-1.649841722483043e-01 4.174725498185372e-01 4.760584212787045e-02
-1.830336733549167e-01 4.627905746259706e-01 4.870798985522917e-02
-2.042366146277905e-01 5.161213537369316e-01 4.892856965309633e-02
-2.237676880835049e-01 5.651990514550358e-01 4.821994503448224e-02
-2.366922760623014e-01 5.975966777481607e-01 4.731892263573911e-02
-2.446571543616174e-01 6.175171251201153e-01 4.660530466350288e-02
-2.639389817775228e-01 6.655650086670886e-01 4.441456513578146e-02
-2.953131918443666e-01 7.430865038559087e-01 3.959289356938811e-02
-3.327896087396240e-01 8.343894983491678e-01 3.209285907340842e-02
-3.678745258409053e-01 9.184120105736233e-01 2.364050463256184e-02
-3.913749134589628e-01 9.738506505143307e-01 1.732218129436092e-02
6.280817470905475e-02 1.430760446021102e-01 -2.105925622672089e-03
5.559146815225768e-02 1.391878248561543e-01 -3.412093533448513e-03
4.527290785720484e-02 1.331028708009490e-01 -5.329886288610197e-03
3.486836274199667e-02 1.261587531971907e-01 -7.301256627071595e-03
2.665551765254770e-02 1.199139261253362e-01 -8.851739471170461e-03
2.183271777741147e-02 1.158439528916558e-01 -9.740326862033299e-03
2.897255387237840e-03 9.561797322466337e-02 -1.263887799565921e-02
2.392665794324622e-03 9.495593056432983e-02 -1.269046680415187e-02
1.615272882405816e-03 9.392040506576005e-02 -1.276570723253911e-02
7.497419642142900e-04 9.274479525857204e-02 -1.284309112000059e-02
-6.048321897655917e-06 9.169823312558933e-02 -1.290482097688361e-02
-4.860787198530669e-04 9.102364333979740e-02 -1.294105013592883e-02
1.999693714262674e-02 1.142021918268754e-01 -1.007055056786044e-02
1.731137054821463e-02 1.116978855277790e-01 -1.054246651651525e-02
1.334157521439605e-02 1.077487022615242e-01 -1.120763359674548e-02
9.148532355875871e-03 1.032117855305167e-01 -1.185117772382505e-02
5.669239816331051e-03 9.911911316974087e-02 -1.232062518841026e-02
3.541306995688331e-03 9.645167963425239e-02 -1.257003502875165e-02
2.038191453267946e-01 1.940258255491651e-01 1.696580289322647e-02
1.779615538249670e-01 1.865059886556732e-01 1.425224772446398e-02
1.421879929396430e-01 1.752378285347782e-01 9.993213392840872e-03
1.078489289364413e-01 1.630020809585545e-01 5.255920770974143e-03
8.226496789445670e-02 1.524361380966159e-01 1.244142917812496e-03
6.799154080551240e-02 1.457146250143025e-01 -1.188315864174783e-03
-1.599065819779649e-02 -1.070351389895530e-03 -4.487813829761933e-03
-1.439391001050566e-02 -3.874749580243364e-03 -3.652566577734717e-03
-1.144228906624620e-02 -6.554783756876237e-03 -2.443770239040077e-03
-7.488182310874197e-03 -6.784329606099537e-03 -1.271010456143529e-03
-3.496037446953815e-03 -4.187257697758184e-03 -4.598694676545279e-04
-7.163576091362370e-04 -9.923168117511594e-04 -7.670129892645150e-05
-1.230629187214838e-03 8.995521854618260e-02 -1.299276233491398e-02
-3.629641487324475e-03 8.623907657783780e-02 -1.312274213076847e-02
-7.009317305807672e-03 8.016529340692746e-02 -1.319378637835200e-02
-1.031688336700687e-02 7.297022094494487e-02 -1.309573752420690e-02
-1.280955109806914e-02 6.638246230219169e-02 -1.286528432964396e-02
-1.420015799676722e-02 6.208200137514852e-02 -1.265250327192113e-02
-1.480630976807651e-02 6.002033051465183e-02 -1.253450479023499e-02
-1.586882817819268e-02 5.605287834594963e-02 -1.227989629997062e-02
-1.726773139292237e-02 4.986659908489788e-02 -1.181438834948700e-02
-1.848328024936619e-02 4.293394427128439e-02 -1.119869061927403e-02
-1.924830717544368e-02 3.690424545276050e-02 -1.058466539472747e-02
-1.959019599675682e-02 3.311480357081831e-02 -1.016121332401809e-02
-1.974417330679740e-02 3.081934400510533e-02 -9.890271003570206e-03
-1.994150636671482e-02 2.546945624497232e-02 -9.214684011613627e-03
-1.978451727178154e-02 1.763538697125488e-02 -8.102672205147599e-03
-1.896304831191986e-02 9.718827359569526e-03 -6.794502465591989e-03
-1.770120995218116e-02 3.730511945329584e-03 -5.624596321336384e-03
-1.664248234909571e-02 4.789908043603130e-04 -4.883191481972915e-03
-8.621461214765813e-03 3.289659660037036e-02 2.290899670523316e-03
-9.153257138605930e-03 3.573329860470748e-02 2.491852105663384e-03
-1.001224092571240e-02 4.037374006306532e-02 2.811367833228218e-03
-1.102772882219172e-02 4.593526180581925e-02 3.179184941899393e-03
-1.196789328782955e-02 5.114119405436895e-02 3.508593528287918e-03
-1.259198040481924e-02 5.462078080278510e-02 3.720792774384307e-03
-4.354116666883401e-03 1.187185427196730e-02 6.811154625658844e-04
-4.864471816282023e-03 1.414574050587558e-02 8.630618955720593e-04
-5.704236817087538e-03 1.807050193175408e-02 1.174370156704185e-03
-6.719596561616803e-03 2.305651840955936e-02 1.561569357914294e-03
-7.679556281555922e-03 2.795567727091380e-02 1.930817816550245e-03
-8.326556187315148e-03 3.133731849712679e-02 2.178634233093391e-03
-1.038325691919695e-04 -3.299338595474932e-05 -2.866550405045132e-05
-5.467650172676086e-04 1.337958564782693e-04 -1.030192809032826e-04
-1.321651863400719e-03 1.339063778826366e-03 -9.664663207331614e-05
-2.326353531765968e-03 4.063292383948980e-03 7.164222320454883e-05
-3.336111312585099e-03 7.661035368217550e-03 3.454194017784573e-04
-4.046059498770405e-03 1.054773755101257e-02 5.750675567881558e-04
-2.034453932576841e-02 9.850864905152090e-02 5.869159490814013e-03
-2.081108387903496e-02 1.011566261891942e-01 5.968635304970604e-03
-2.154964747031274e-02 1.053452691362228e-01 6.119232361122329e-03
-2.240105474092791e-02 1.101679108693949e-01 6.282446437847256e-03
-2.317045250998806e-02 1.145195340159850e-01 6.420447008544272e-03
-2.367205125482830e-02 1.173527970782081e-01 6.505602362558704e-03
-1.297284877942118e-02 5.675207170845675e-02 3.847633689886720e-03
-1.388870399656417e-02 6.189702175859635e-02 4.144092320434112e-03
-1.538087457176540e-02 7.032455025544809e-02 4.600299850675782e-03
-1.716379227301579e-02 8.043758039596977e-02 5.100438315714939e-03
-1.883116661195339e-02 8.991184422551979e-02 5.523161378729213e-03
-1.994620425392890e-02 9.624678744292559e-02 5.781552805512291e-03
-3.064318301925417e-02 1.587299654859111e-01 6.966932286260885e-03