<?xml version="1.0" ?> 
<!-- 
# vtk DataFile Version 3.0
-->
<VTKFile type="UnstructuredGrid" version="0.1" compressor="vtkZLibDataCompressor" byte_order="LittleEndian">
  <UnstructuredGrid>
    <FieldData>
      <DataArray type="Float64" Name="TIME" NumberOfTuples="1" format="ascii">
1.000000010000000e+00 
      </DataArray>
    </FieldData>

    <Piece NumberOfPoints="927" NumberOfCells="0" >
      <Points>
        <DataArray type="Float64" NumberOfComponents="3" format="ascii">
7.000000000000000e-01 0.000000000000000e+00 0.000000000000000e+00
6.062177826489999e-01 3.500000000000000e-01 0.000000000000000e+00
6.062177826489999e-01 3.500000000000000e-01 5.000000000000000e-01
7.000000000000000e-01 0.000000000000000e+00 5.000000000000000e-01
1.000000000000000e+00 0.000000000000000e+00 0.000000000000000e+00
8.660254037839999e-01 5.000000000000000e-01 0.000000000000000e+00
8.660254037839999e-01 5.000000000000000e-01 5.000000000000000e-01
1.000000000000000e+00 0.000000000000000e+00 5.000000000000000e-01
3.500000000000000e-01 6.062177826489999e-01 0.000000000000000e+00
3.500000000000000e-01 6.062177826489999e-01 5.000000000000000e-01
5.000000000000000e-01 8.660254037839999e-01 0.000000000000000e+00
5.000000000000000e-01 8.660254037839999e-01 5.000000000000000e-01
0.000000000000000e+00 7.000000000000000e-01 0.000000000000000e+00
0.000000000000000e+00 7.000000000000000e-01 5.000000000000000e-01
0.000000000000000e+00 1.000000000000000e+00 0.000000000000000e+00
0.000000000000000e+00 1.000000000000000e+00 5.000000000000000e-01
6.062177826489999e-01 3.500000000000000e-01 1.000000000000000e+00
7.000000000000000e-01 0.000000000000000e+00 1.000000000000000e+00
8.660254037839999e-01 5.000000000000000e-01 1.000000000000000e+00
1.000000000000000e+00 0.000000000000000e+00 1.000000000000000e+00
3.500000000000000e-01 6.062177826489999e-01 1.000000000000000e+00
5.000000000000000e-01 8.660254037839999e-01 1.000000000000000e+00
0.000000000000000e+00 7.000000000000000e-01 1.000000000000000e+00
0.000000000000000e+00 1.000000000000000e+00 1.000000000000000e+00
6.062177826489999e-01 3.500000000000000e-01 1.500000000000000e+00
7.000000000000000e-01 0.000000000000000e+00 1.500000000000000e+00
8.660254037839999e-01 5.000000000000000e-01 1.500000000000000e+00
1.000000000000000e+00 0.000000000000000e+00 1.500000000000000e+00
3.500000000000000e-01 6.062177826489999e-01 1.500000000000000e+00
5.000000000000000e-01 8.660254037839999e-01 1.500000000000000e+00
0.000000000000000e+00 7.000000000000000e-01 1.500000000000000e+00
0.000000000000000e+00 1.000000000000000e+00 1.500000000000000e+00
0.000000000000000e+00 0.000000000000000e+00 3.500000000000000e+00
0.000000000000000e+00 0.000000000000000e+00 3.000000000000000e+00
0.000000000000000e+00 3.000000000000000e-01 3.000000000000000e+00
0.000000000000000e+00 3.000000000000000e-01 3.500000000000000e+00
5.000000000000000e-01 0.000000000000000e+00 3.500000000000000e+00
5.000000000000000e-01 0.000000000000000e+00 3.000000000000000e+00
5.000000000000000e-01 3.000000000000000e-01 3.000000000000000e+00
5.000000000000000e-01 3.000000000000000e-01 3.500000000000000e+00
0.000000000000000e+00 0.000000000000000e+00 2.500000000000000e+00
0.000000000000000e+00 3.000000000000000e-01 2.500000000000000e+00
5.000000000000000e-01 0.000000000000000e+00 2.500000000000000e+00
5.000000000000000e-01 3.000000000000000e-01 2.500000000000000e+00
1.000000000000000e+00 0.000000000000000e+00 3.500000000000000e+00
1.000000000000000e+00 0.000000000000000e+00 3.000000000000000e+00
1.000000000000000e+00 3.000000000000000e-01 3.000000000000000e+00
1.000000000000000e+00 3.000000000000000e-01 3.500000000000000e+00
1.000000000000000e+00 0.000000000000000e+00 2.500000000000000e+00
1.000000000000000e+00 3.000000000000000e-01 2.500000000000000e+00
1.500000000000000e+00 0.000000000000000e+00 3.500000000000000e+00
1.500000000000000e+00 0.000000000000000e+00 3.000000000000000e+00
1.500000000000000e+00 3.000000000000000e-01 3.000000000000000e+00
1.500000000000000e+00 3.000000000000000e-01 3.500000000000000e+00
1.500000000000000e+00 0.000000000000000e+00 2.500000000000000e+00
1.500000000000000e+00 3.000000000000000e-01 2.500000000000000e+00
2.000000000000000e+00 0.000000000000000e+00 3.500000000000000e+00
2.000000000000000e+00 0.000000000000000e+00 3.000000000000000e+00
2.000000000000000e+00 3.000000000000000e-01 3.000000000000000e+00
2.000000000000000e+00 3.000000000000000e-01 3.500000000000000e+00
2.000000000000000e+00 0.000000000000000e+00 2.500000000000000e+00
2.000000000000000e+00 3.000000000000000e-01 2.500000000000000e+00
7.000000000000000e-01 0.000000000000000e+00 5.000000000000000e+00
6.062177826489999e-01 3.500000000000000e-01 5.000000000000000e+00
6.062177826489999e-01 3.500000000000000e-01 5.500000000000000e+00
7.000000000000000e-01 0.000000000000000e+00 5.500000000000000e+00
1.000000000000000e+00 0.000000000000000e+00 5.000000000000000e+00
8.660254037839999e-01 5.000000000000000e-01 5.000000000000000e+00
8.660254037839999e-01 5.000000000000000e-01 5.500000000000000e+00
1.000000000000000e+00 0.000000000000000e+00 5.500000000000000e+00
6.761480784020000e-01 1.811733315720000e-01 5.000000000000000e+00
6.062177826489999e-01 3.500000000000000e-01 5.250000000000000e+00
6.761480784020000e-01 1.811733315720000e-01 5.500000000000000e+00
7.000000000000000e-01 0.000000000000000e+00 5.250000000000000e+00
8.500000000000000e-01 0.000000000000000e+00 5.000000000000000e+00
7.361215932170000e-01 4.250000000000000e-01 5.000000000000000e+00
7.361215932170000e-01 4.250000000000000e-01 5.500000000000000e+00
8.500000000000000e-01 0.000000000000000e+00 5.500000000000000e+00
9.659258262890000e-01 2.588190451030000e-01 5.000000000000000e+00
8.660254037839999e-01 5.000000000000000e-01 5.250000000000000e+00
9.659258262890000e-01 2.588190451030000e-01 5.500000000000000e+00
1.000000000000000e+00 0.000000000000000e+00 5.250000000000000e+00
3.500000000000000e-01 6.062177826489999e-01 5.000000000000000e+00
3.500000000000000e-01 6.062177826489999e-01 5.500000000000000e+00
5.000000000000000e-01 8.660254037839999e-01 5.000000000000000e+00
5.000000000000000e-01 8.660254037839999e-01 5.500000000000000e+00
4.949747468310000e-01 4.949747468310000e-01 5.000000000000000e+00
3.500000000000000e-01 6.062177826489999e-01 5.250000000000000e+00
4.949747468310000e-01 4.949747468310000e-01 5.500000000000000e+00
4.250000000000000e-01 7.361215932170000e-01 5.000000000000000e+00
4.250000000000000e-01 7.361215932170000e-01 5.500000000000000e+00
7.071067811870000e-01 7.071067811870000e-01 5.000000000000000e+00
5.000000000000000e-01 8.660254037839999e-01 5.250000000000000e+00
7.071067811870000e-01 7.071067811870000e-01 5.500000000000000e+00
0.000000000000000e+00 7.000000000000000e-01 5.000000000000000e+00
0.000000000000000e+00 7.000000000000000e-01 5.500000000000000e+00
0.000000000000000e+00 1.000000000000000e+00 5.000000000000000e+00
0.000000000000000e+00 1.000000000000000e+00 5.500000000000000e+00
1.811733315720000e-01 6.761480784020000e-01 5.000000000000000e+00
0.000000000000000e+00 7.000000000000000e-01 5.250000000000000e+00
1.811733315720000e-01 6.761480784020000e-01 5.500000000000000e+00
0.000000000000000e+00 8.500000000000000e-01 5.000000000000000e+00
0.000000000000000e+00 8.500000000000000e-01 5.500000000000000e+00
2.588190451030000e-01 9.659258262890000e-01 5.000000000000000e+00
0.000000000000000e+00 1.000000000000000e+00 5.250000000000000e+00
2.588190451030000e-01 9.659258262890000e-01 5.500000000000000e+00
6.062177826489999e-01 3.500000000000000e-01 6.000000000000000e+00
7.000000000000000e-01 0.000000000000000e+00 6.000000000000000e+00
8.660254037839999e-01 5.000000000000000e-01 6.000000000000000e+00
1.000000000000000e+00 0.000000000000000e+00 6.000000000000000e+00
6.062177826489999e-01 3.500000000000000e-01 5.750000000000000e+00
6.761480784020000e-01 1.811733315720000e-01 6.000000000000000e+00
7.000000000000000e-01 0.000000000000000e+00 5.750000000000000e+00
7.361215932170000e-01 4.250000000000000e-01 6.000000000000000e+00
8.500000000000000e-01 0.000000000000000e+00 6.000000000000000e+00
8.660254037839999e-01 5.000000000000000e-01 5.750000000000000e+00
9.659258262890000e-01 2.588190451030000e-01 6.000000000000000e+00
1.000000000000000e+00 0.000000000000000e+00 5.750000000000000e+00
3.500000000000000e-01 6.062177826489999e-01 6.000000000000000e+00
5.000000000000000e-01 8.660254037839999e-01 6.000000000000000e+00
3.500000000000000e-01 6.062177826489999e-01 5.750000000000000e+00
4.949747468310000e-01 4.949747468310000e-01 6.000000000000000e+00
4.250000000000000e-01 7.361215932170000e-01 6.000000000000000e+00
5.000000000000000e-01 8.660254037839999e-01 5.750000000000000e+00
7.071067811870000e-01 7.071067811870000e-01 6.000000000000000e+00
0.000000000000000e+00 7.000000000000000e-01 6.000000000000000e+00
0.000000000000000e+00 1.000000000000000e+00 6.000000000000000e+00
0.000000000000000e+00 7.000000000000000e-01 5.750000000000000e+00
1.811733315720000e-01 6.761480784020000e-01 6.000000000000000e+00
0.000000000000000e+00 8.500000000000000e-01 6.000000000000000e+00
0.000000000000000e+00 1.000000000000000e+00 5.750000000000000e+00
2.588190451030000e-01 9.659258262890000e-01 6.000000000000000e+00
6.062177826489999e-01 3.500000000000000e-01 6.500000000000000e+00
7.000000000000000e-01 0.000000000000000e+00 6.500000000000000e+00
8.660254037839999e-01 5.000000000000000e-01 6.500000000000000e+00
1.000000000000000e+00 0.000000000000000e+00 6.500000000000000e+00
6.062177826489999e-01 3.500000000000000e-01 6.250000000000000e+00
6.761480784020000e-01 1.811733315720000e-01 6.500000000000000e+00
7.000000000000000e-01 0.000000000000000e+00 6.250000000000000e+00
7.361215932170000e-01 4.250000000000000e-01 6.500000000000000e+00
8.500000000000000e-01 0.000000000000000e+00 6.500000000000000e+00
8.660254037839999e-01 5.000000000000000e-01 6.250000000000000e+00
9.659258262890000e-01 2.588190451030000e-01 6.500000000000000e+00
1.000000000000000e+00 0.000000000000000e+00 6.250000000000000e+00
[...]
  <PointData>
        <DataArray type="Float64" Name="displacement" NumberOfComponents="3" format="ascii">
2.523428470058208e-01 1.177769090047944e-01 -2.063996838149725e-02
1.188544741015866e-01 6.496757965123384e-02 -1.922403407246861e-02
8.301937046172074e-02 5.348477736668917e-02 -1.753902115852889e-02
2.109103737165522e-01 9.421714317024918e-02 -2.376860111347762e-02
2.479283847859760e-01 2.170699792328395e-01 -4.443705605702356e-04
5.737653433927360e-02 1.357493223730538e-01 -7.949366909324351e-03
2.525703982608541e-02 9.994900115902600e-02 -1.031623151111167e-02
1.917049557389418e-01 2.131159389721789e-01 -2.392794992171201e-03
2.952426623281713e-02 1.252736049003535e-02 -5.394932215751402e-04
2.425057654345977e-02 2.285876066572501e-02 -1.200908446929479e-02
-1.603880961652422e-02 2.160387517403770e-02 -1.342213950495826e-02
-3.215638471976233e-03 4.148358489877550e-02 -9.253448853104857e-03
0.000000000000000e+00 0.000000000000000e+00 0.000000000000000e+00
0.000000000000000e+00 0.000000000000000e+00 0.000000000000000e+00
0.000000000000000e+00 0.000000000000000e+00 0.000000000000000e+00
0.000000000000000e+00 0.000000000000000e+00 0.000000000000000e+00
8.074663433909043e-02 6.840024184840220e-02 -8.432889551059624e-03
1.568911909386612e-01 1.040119419152493e-01 -1.801541098073690e-02
4.119924004254035e-02 1.344457730116418e-01 -1.301579063769928e-02
1.464763563736453e-01 1.653742057902492e-01 1.678009330096580e-03
2.086550037631237e-02 1.222372843402184e-02 -2.281316370264932e-03
-2.167335590490992e-02 1.300713768678708e-02 -8.888478493238467e-03
0.000000000000000e+00 0.000000000000000e+00 0.000000000000000e+00
0.000000000000000e+00 0.000000000000000e+00 0.000000000000000e+00
6.918260608938795e-02 8.425950807082994e-02 -1.018768303695814e-02
1.288773269186013e-01 9.761499621108770e-02 -1.443055429641608e-02
4.094312927575085e-02 1.132716377739232e-01 -7.017033242670600e-03
1.246082321624451e-01 1.556732325086934e-01 -2.874039879078786e-03
3.540010189897454e-02 5.478543320454284e-02 4.398925065797042e-03
6.936888228900064e-03 8.167602611627223e-02 -1.747890651024812e-02
0.000000000000000e+00 0.000000000000000e+00 0.000000000000000e+00
0.000000000000000e+00 0.000000000000000e+00 0.000000000000000e+00
0.000000000000000e+00 0.000000000000000e+00 0.000000000000000e+00
0.000000000000000e+00 0.000000000000000e+00 0.000000000000000e+00
0.000000000000000e+00 0.000000000000000e+00 0.000000000000000e+00
0.000000000000000e+00 0.000000000000000e+00 0.000000000000000e+00
1.639591068035621e-02 4.701999434824315e-02 9.196895830863683e-03
1.473640613006050e-02 3.223188164297138e-02 1.442555403957722e-02
-1.070840738795955e-02 3.125643788290490e-02 -1.119155834434389e-04
-2.509626834382683e-02 4.449075231384381e-02 3.462633526129014e-03
0.000000000000000e+00 0.000000000000000e+00 0.000000000000000e+00
0.000000000000000e+00 0.000000000000000e+00 0.000000000000000e+00
1.379731435900107e-02 3.817997886324800e-03 2.068529220820793e-02
1.015693001440654e-04 1.543141544907626e-03 -7.403892475637758e-04
1.940829655482800e-02 1.451218329295288e-01 2.920887675908059e-02
2.263869776721924e-02 9.171221584212404e-02 3.543719318472822e-02
-1.755179966459345e-02 8.613350058761862e-02 4.957499414425665e-04
-3.998483025306507e-02 1.365945324193992e-01 -7.424323069758210e-04
2.740133143295350e-02 2.788282543176063e-02 4.293876865918914e-02
2.148766044241805e-03 2.104907371023822e-02 2.005915990340512e-03
1.508593114371790e-02 2.628343513810898e-01 4.485039205526302e-02
2.344600716136871e-02 1.735876984754471e-01 5.333440222526088e-02
-2.495200625647139e-02 1.652065089199099e-01 2.570552315751566e-04
-4.711973942343230e-02 2.507519446415893e-01 -7.461370965481576e-03
3.471822794371139e-02 8.393817245899710e-02 6.229568252102880e-02
-4.233682788803940e-03 7.656860350679999e-02 7.110063345099740e-03
3.846344661641653e-03 3.807008362711284e-01 5.175621500115454e-02
1.800674646817652e-02 2.611118116184117e-01 6.420534284200974e-02
-3.208986036272872e-02 2.478411025652789e-01 -2.380129145110791e-03
-5.904895208181286e-02 3.720844923765587e-01 -1.583192464226756e-02
3.123549878433663e-02 1.530220961420438e-01 7.165758524402852e-02
-1.010737856830537e-02 1.446741421553234e-01 9.704724748586992e-03
3.258291516260240e-01 1.847481467952553e-01 -4.531719308934033e-02
1.643439957334771e-01 1.175066015387923e-01 -2.074233351455415e-02
1.267758269066205e-01 9.866433865486690e-02 -2.916088647197186e-02
2.426409225219080e-01 1.455284323006879e-01 -4.951257916461210e-02
3.205809036842343e-01 3.053352717283020e-01 1.006718301427047e-02
8.300934311089722e-02 2.074891931446581e-01 -3.932176250358542e-04
6.772046054666585e-02 1.715938344291720e-01 -7.018703629248337e-03
2.259863892620814e-01 2.450467981280854e-01 -7.517377417311613e-03
2.439934536020636e-01 1.601574189306752e-01 -3.286242102236145e-02
1.475530169725093e-01 1.063481210725024e-01 -2.634450039482844e-02
1.822720608845922e-01 1.283049816759184e-01 -3.997706846017850e-02
2.861038985640968e-01 1.616589704207217e-01 -4.904652824924301e-02
3.194184594782358e-01 2.471526766823687e-01 -1.912982552147463e-02
1.234735483848432e-01 1.621498128651877e-01 -1.008873784522132e-02
9.629369141709369e-02 1.352362107961071e-01 -1.689991713157235e-02
2.347815082370420e-01 1.949350175002108e-01 -2.881781906477240e-02
1.993529859154486e-01 2.676358989071458e-01 6.801817931741653e-03
7.689714259455489e-02 1.879913244501119e-01 -6.297304919611212e-03
1.402065300596011e-01 2.182097053750726e-01 -4.307618938962691e-03
2.653373663426593e-01 2.741847245767959e-01 -2.207101006640580e-03
4.724228790299002e-02 2.923599990704814e-02 -6.810724212149013e-04
4.312741437542430e-02 3.106490823291766e-02 -1.074594167550395e-02
-1.375102345018063e-02 5.558818288632728e-02 -9.589960295438519e-03
-1.013237278293364e-02 5.436032680757656e-02 -6.277725282641307e-03
9.609244284322373e-02 7.061533772674528e-02 -8.952377846003647e-03
4.827870270514031e-02 3.207919661864257e-02 -7.823491844824861e-03
8.007825306919095e-02 6.415290287048350e-02 -1.917207987513578e-02
1.584403645446754e-02 3.969764395014404e-02 -5.783479152614549e-03
1.601516274897410e-02 3.988806491244891e-02 -8.205093958489782e-03
1.369423532261730e-02 1.285495810174684e-01 -5.337737214138757e-03
-1.130081998177046e-02 5.718891661470974e-02 -5.996862730154149e-03
1.551189559173260e-02 1.135628559879313e-01 -8.661676819287470e-03
0.000000000000000e+00 0.000000000000000e+00 0.000000000000000e+00
0.000000000000000e+00 0.000000000000000e+00 0.000000000000000e+00
0.000000000000000e+00 0.000000000000000e+00 0.000000000000000e+00
0.000000000000000e+00 0.000000000000000e+00 0.000000000000000e+00
1.730417554689831e-02 5.779916182331824e-03 3.147745300116357e-03
0.000000000000000e+00 0.000000000000000e+00 0.000000000000000e+00
1.752596976011810e-02 9.065019496849963e-03 -4.968650127267513e-03
0.000000000000000e+00 0.000000000000000e+00 0.000000000000000e+00
0.000000000000000e+00 0.000000000000000e+00 0.000000000000000e+00
-1.206641615355757e-02 1.088928696578204e-02 -6.633557051054123e-03
0.000000000000000e+00 0.000000000000000e+00 0.000000000000000e+00
-1.042509631950675e-02 1.386493252771341e-02 -3.938300552702948e-03
9.157511167246965e-02 7.635365805130519e-02 -2.939813403264417e-02
1.799488624946040e-01 1.098246559584366e-01 -5.103899790963909e-02
4.851639293232739e-02 1.332374429714225e-01 -5.170540051168082e-03
1.706576111200871e-01 1.859466496407175e-01 -2.233704591441989e-02
1.082368975978282e-01 8.880021403247010e-02 -2.940504443196124e-02
1.339408950846396e-01 9.793101344840038e-02 -3.942841434598200e-02
2.075538746429203e-01 1.288173115405505e-01 -5.054907057005691e-02
6.979422010727084e-02 1.044934279573090e-01 -1.747235971293985e-02
1.749816308607199e-01 1.475363564354089e-01 -3.702244235293252e-02
5.808241900412403e-02 1.543405689864533e-01 -6.242049087816507e-03
1.042702932544211e-01 1.678142873738264e-01 -8.782678123633699e-03
1.951931515822764e-01 2.147737347319713e-01 -1.465685564363770e-02
3.183885840668228e-02 2.741924354602389e-02 -1.313610092739410e-02
-7.701611904443200e-03 4.669082329318602e-02 -4.124924905280896e-03
3.752176385797942e-02 3.030738531542164e-02 -1.183096123869576e-02
5.756673890029215e-02 5.199949390267097e-02 -2.077414157893148e-02
1.172896865869267e-02 3.549385180478071e-02 -8.479957214087548e-03
-8.362068551973282e-03 5.129532947719671e-02 -6.426757555439740e-03
1.066925991125311e-02 8.919353414967034e-02 -5.063130445298917e-03
0.000000000000000e+00 0.000000000000000e+00 0.000000000000000e+00
0.000000000000000e+00 0.000000000000000e+00 0.000000000000000e+00
0.000000000000000e+00 0.000000000000000e+00 0.000000000000000e+00
1.373499216960310e-02 9.185626942868664e-03 -6.061326716772758e-03
0.000000000000000e+00 0.000000000000000e+00 0.000000000000000e+00
0.000000000000000e+00 0.000000000000000e+00 0.000000000000000e+00
-9.486403547004280e-03 1.400622075731695e-02 -2.333640624496149e-03
6.569490453136309e-02 4.287534924041190e-02 -3.220751289068133e-02
1.401024393587551e-01 6.898175003439533e-02 -5.324532182646623e-02
3.106547069441219e-02 9.175378307880028e-02 -5.481936126073045e-03
1.326462395356574e-01 1.354946339521045e-01 -2.817332370887396e-02
7.790186683768605e-02 6.143756459472192e-02 -3.025626266570214e-02
1.004530517984590e-01 5.948913422083436e-02 -4.147457337969598e-02
1.584306150023737e-01 8.971708349300220e-02 -5.181688182906088e-02
4.799152050577683e-02 6.714089896554652e-02 -1.855376981203530e-02
1.364273459640293e-01 1.021485024999046e-01 -4.073633059483479e-02
4.103433431485463e-02 1.119767118895419e-01 -5.408659252431417e-03
7.635971066535295e-02 1.199135080390157e-01 -1.349575040882191e-02
1.503891152072164e-01 1.588513992794894e-01 -2.622704801897945e-02
2.079363112857619e-02 8.523433755995994e-03 -1.724600676096189e-02
-7.350177781024300e-03 2.228831282204123e-02 4.113274755299846e-04
2.526218997435749e-02 2.106850304009414e-02 -1.468998901241754e-02
3.952915259616280e-02 2.466964393963290e-02 -2.498401580503726e-02
6.441938336017574e-03 1.419039299017441e-02 -8.430951117131472e-03
-7.355491546560339e-03 3.748676520370088e-02 -1.640085094849624e-03
3.142216312890623e-03 5.578642182674597e-02 -1.820395589454125e-03
0.000000000000000e+00 0.000000000000000e+00 0.000000000000000e+00
0.000000000000000e+00 0.000000000000000e+00 0.000000000000000e+00
0.000000000000000e+00 0.000000000000000e+00 0.000000000000000e+00
8.595576774244518e-03 1.255200757963092e-03 -9.787989707034629e-03
0.000000000000000e+00 0.000000000000000e+00 0.000000000000000e+00
0.000000000000000e+00 0.000000000000000e+00 0.000000000000000e+00
-4.282573497316301e-03 5.433966354058350e-03 1.717070846493436e-03
0.000000000000000e+00 0.000000000000000e+00 0.000000000000000e+00
0.000000000000000e+00 0.000000000000000e+00 0.000000000000000e+00
0.000000000000000e+00 0.000000000000000e+00 0.000000000000000e+00
0.000000000000000e+00 0.000000000000000e+00 0.000000000000000e+00
1.924025594778422e-02 6.385214051046924e-02 1.120508937244919e-02
2.968048683738411e-02 6.093728722278258e-02 1.913135655531369e-02
-2.762408146232659e-02 5.437341894768307e-02 9.018921092395271e-03
-4.580448557019111e-02 5.696004613308195e-02 1.456922141889059e-02
0.000000000000000e+00 0.000000000000000e+00 0.000000000000000e+00
0.000000000000000e+00 0.000000000000000e+00 0.000000000000000e+00
0.000000000000000e+00 0.000000000000000e+00 0.000000000000000e+00
0.000000000000000e+00 0.000000000000000e+00 0.000000000000000e+00
1.156993190103232e-02 1.579245106062045e-02 1.176413105945565e-03
1.660063541888795e-02 1.902197114490671e-02 7.030037583449844e-03
-1.408909737371127e-02 1.611921255589845e-02 2.230556073096339e-03
-2.252799431873918e-02 1.523939609072550e-02 9.207070753414825e-03
2.599785837897869e-02 6.580092125929431e-02 1.505017510091221e-02
1.074794260328851e-03 5.597692227487609e-02 1.455397772656842e-02
-3.747807037658327e-02 5.869178759388563e-02 1.058869993377419e-02
-1.310755200860774e-02 5.848625922332962e-02 1.294585912431931e-02
0.000000000000000e+00 0.000000000000000e+00 0.000000000000000e+00
0.000000000000000e+00 0.000000000000000e+00 0.000000000000000e+00
4.267604820777471e-02 3.853129074221970e-02 2.886044838419590e-02
-5.877168785352860e-03 3.099266530903997e-02 7.563878904634098e-03
0.000000000000000e+00 0.000000000000000e+00 0.000000000000000e+00
0.000000000000000e+00 0.000000000000000e+00 0.000000000000000e+00
0.000000000000000e+00 0.000000000000000e+00 0.000000000000000e+00
2.166889635901352e-02 9.429296534419929e-03 1.452970524255008e-02
-1.419272871041448e-03 4.633868459586561e-03 8.694685959279112e-04
3.327534957291653e-02 5.224235862712419e-02 2.291596115324050e-02
1.870307723389551e-02 3.335123225496978e-02 1.846440404321332e-02
-1.739983961919858e-02 4.397771393378633e-02 7.777346340908769e-03
1.742009635753929e-02 2.263073261793396e-01 3.946773327283311e-02
3.693741734463295e-02 2.017347447949801e-01 4.877367397978876e-02
-5.782601113668370e-02 1.864556674685497e-01 2.897927344369378e-02
-8.898994953702656e-02 2.077855540770261e-01 2.595998626956345e-02
2.134355477413753e-02 1.363856812680133e-01 2.506766434745001e-02
3.637909394804385e-02 1.232200171095034e-01 3.373467791863972e-02
-4.123471470732451e-02 1.122297522036201e-01 1.921486380239256e-02
-6.830416714477021e-02 1.236262028988713e-01 2.047120961234965e-02
2.879290082525098e-02 2.163771027041968e-01 4.426945716425883e-02
-1.109141866158512e-02 1.933427329351847e-01 3.813806752270234e-02
-7.394898949370035e-02 1.986748235078349e-01 2.749618542133216e-02
-3.515323080501180e-02 2.165806381982437e-01 3.312548405176986e-02
5.925010746413078e-02 1.631603140479927e-01 5.808672649237052e-02
-3.173323053370077e-02 1.482035989084771e-01 2.753561061520362e-02
5.573297700223032e-02 9.189143518893962e-02 4.433903063379438e-02
-1.612801608213175e-02 8.015322617186404e-02 1.687487428787336e-02
4.576611247500086e-02 1.839342308427075e-01 5.338889816155941e-02
1.427882599714610e-02 1.552739825016930e-01 4.291799994741311e-02
-4.529131972874292e-02 1.695183643615200e-01 2.841453721620714e-02
-1.289893252177723e-03 4.401148385982342e-01 6.401967620154723e-02
1.955770231795729e-02 3.900120615595564e-01 7.183363603753415e-02
-9.748240244580886e-02 3.678974813706173e-01 3.932171535367165e-02
-1.288523872714315e-01 4.125276087757250e-01 3.402330026586268e-02
1.002827749308490e-02 3.282322243748037e-01 5.291260668787495e-02
3.064761525440965e-02 2.920509722503496e-01 6.140334222123599e-02
-7.613507364378772e-02 2.727371883103510e-01 3.653783295271757e-02
-1.085266650624886e-01 3.057219477867067e-01 3.164191611164173e-02
9.516734426042256e-03 4.154264380952456e-01 6.844707333264294e-02
-3.928461512776228e-02 3.784208879451211e-01 5.526558642045529e-02
-1.107971658799429e-01 3.912504271045107e-01 3.796668885391744e-02
-6.601357230272444e-02 4.258653963319730e-01 4.846460716061180e-02
4.320846799975248e-02 3.368356737355557e-01 7.883669503653841e-02
-6.767562998632937e-02 3.166156838462805e-01 4.258053696228029e-02
5.386913104494227e-02 2.461489945191050e-01 6.980277289068046e-02
-4.933593456589363e-02 2.279854361637886e-01 3.532894970017758e-02
2.999936608364775e-02 3.638555661172882e-01 7.522689618195584e-02
-1.182470439110904e-02 3.265396879951493e-01 6.088654804929081e-02
-8.343650940665628e-02 3.429422641663796e-01 4.030136738718484e-02
-4.097069594331741e-02 6.725929168252615e-01 7.673353002983452e-02
-1.510926512318007e-02 5.957585279261447e-01 8.469504996534677e-02
-1.374741721630278e-01 5.715589873395890e-01 4.250778305532807e-02
-1.769957835390407e-01 6.530916889832563e-01 2.487144196932427e-02
-1.972274634136274e-02 5.572029420425261e-01 7.207337392474597e-02
3.465114667643029e-03 4.923939604225686e-01 7.978401167692772e-02
-1.184950974077335e-01 4.681578260033363e-01 4.059671213895852e-02
-1.505564537463715e-01 5.322256746623450e-01 3.067275404046321e-02
-2.713258627891908e-02 6.337999525575422e-01 8.143950252972437e-02
-7.612582145986982e-02 5.838488563565752e-01 6.360596534195428e-02
-1.571934889452056e-01 6.083600354813949e-01 3.513738890183063e-02
-1.081770696441853e-01 6.616310031620611e-01 5.219319727405110e-02
1.246003559584734e-02 5.311951153809550e-01 9.201730170498040e-02
-1.052434897667923e-01 5.088320005719388e-01 5.186848502671645e-02
2.876799404572573e-02 4.329274410176204e-01 8.621150193036070e-02
-8.651043861837657e-02 4.114015689815970e-01 4.758440935336962e-02
-2.057629108201661e-03 5.622065095347550e-01 8.820013980862731e-02
-4.645270025246857e-02 5.198529872736598e-01 7.190059440964076e-02
-1.203260253734840e-01 5.394151317461213e-01 4.802398416224431e-02
3.316530387286546e-01 1.911861140408903e-01 -4.500253440639695e-02
1.658542843295435e-01 1.234272797175150e-01 -1.984422799821055e-02
1.288777504947345e-01 1.024088191118186e-01 -2.919163481129732e-02
2.475295517793847e-01 1.508322209953560e-01 -5.054455882472715e-02
3.256801220401384e-01 3.133128053238088e-01 8.775446220746899e-03
8.270593581399095e-02 2.156299043185351e-01 2.250165241213581e-03
6.940636088449556e-02 1.764179032743426e-01 -7.798769063879743e-03
2.306175352267342e-01 2.525568801549603e-01 -7.514763104098675e-03
2.486105260235764e-01 1.660772388358169e-01 -3.315838937578018e-02
1.504868757354077e-01 1.103209441679470e-01 -2.678953482788433e-02
1.858822356227783e-01 1.330693662446445e-01 -4.082731245617924e-02
2.898934523928238e-01 1.685155760049906e-01 -4.859026400597277e-02
3.228111171351238e-01 2.533880530309378e-01 -1.994167818131172e-02
1.261959993134359e-01 1.671016981740022e-01 -1.043014620166162e-02
9.838023602871476e-02 1.392807813299840e-01 -1.756679233203855e-02
2.384926327342253e-01 2.008670128089922e-01 -2.981886603471483e-02
2.020927986330240e-01 2.749338772888348e-01 7.185829304036283e-03
7.803874661587530e-02 1.938882601518403e-01 -6.118697511060350e-03
1.423532444292160e-01 2.248299513763647e-01 -3.443239180057024e-03
2.685374730074500e-01 2.828425774211482e-01 -9.889613797290434e-04
1.928729525708915e-01 1.984542199052946e-01 -1.978251563704147e-02
2.188178951962798e-01 1.460938725220717e-01 -3.910611592381399e-02
1.695710062311923e-01 2.479520470234630e-01 -2.567051367745012e-03
2.794530491827900e-01 2.252090899272123e-01 -2.705988286625850e-02
1.134583429173204e-01 1.520483585996424e-01 -1.547577642942268e-02
2.228678178958032e-01 2.213297400956040e-01 -1.328504180625243e-02
1.639535949798001e-01 1.784439727241135e-01 -2.196771499524992e-02
4.905681924111994e-02 3.098046098769761e-02 -1.161191361939606e-03
4.437353781612448e-02 3.212203387835487e-02 -1.085775154582444e-02
-1.478087111922047e-02 5.847849161946790e-02 -8.632611660030405e-03
-1.133751191514676e-02 5.635317638354387e-02 -5.417237430726276e-03
9.803015315872267e-02 7.492185496939441e-02 -8.794520602003763e-03
4.945097305801183e-02 3.297562840504904e-02 -7.767958502830487e-03
8.131159192073691e-02 6.713266164818343e-02 -1.936987462285043e-02
1.676486329376149e-02 4.302945711932404e-02 -5.712678516541538e-03
1.643949753579571e-02 4.263829262134336e-02 -8.527508373691983e-03
1.546399454679845e-02 1.328550048910336e-01 -5.634571073083241e-03
-1.183996514158461e-02 5.937135253505545e-02 -6.932309858044926e-03
1.600802795716707e-02 1.171461695797755e-01 -8.780726558653923e-03
5.335710646713351e-02 9.665086572679746e-02 -1.103099351165733e-02
9.285225522151960e-02 7.059666165868472e-02 -1.595727272946189e-02
1.550257840571485e-02 1.255219160733987e-01 -6.034235520993086e-03
1.821888371399302e-02 4.438586096087887e-02 -7.064874122214397e-03
5.554975609931741e-02 1.023920728103761e-01 -7.430332210163711e-03
4.791121483200035e-02 9.058852436003012e-02 -1.322916326347965e-02
0.000000000000000e+00 0.000000000000000e+00 0.000000000000000e+00
0.000000000000000e+00 0.000000000000000e+00 0.000000000000000e+00
0.000000000000000e+00 0.000000000000000e+00 0.000000000000000e+00
0.000000000000000e+00 0.000000000000000e+00 0.000000000000000e+00
1.861207875061924e-02 6.490570996189817e-03 3.656623096600398e-03
0.000000000000000e+00 0.000000000000000e+00 0.000000000000000e+00