<?xml version="1.0" ?> 
<!-- 
# vtk DataFile Version 3.0
-->
<VTKFile type="UnstructuredGrid" version="0.1" compressor="vtkZLibDataCompressor" byte_order="LittleEndian">
  <UnstructuredGrid>
    <FieldData>
      <DataArray type="Float64" Name="TIME" NumberOfTuples="1" format="ascii">
3
      </DataArray>
    </FieldData>

    <Piece NumberOfPoints="927" NumberOfCells="0" >
      <Points>
        <DataArray type="Float64" NumberOfComponents="3" format="ascii">
7.000000000000000e-01 0.000000000000000e+00 0.000000000000000e+00
6.062177826489999e-01 3.500000000000000e-01 0.000000000000000e+00
6.062177826489999e-01 3.500000000000000e-01 5.000000000000000e-01
7.000000000000000e-01 0.000000000000000e+00 5.000000000000000e-01
1.000000000000000e+00 0.000000000000000e+00 0.000000000000000e+00
8.660254037839999e-01 5.000000000000000e-01 0.000000000000000e+00
8.660254037839999e-01 5.000000000000000e-01 5.000000000000000e-01
1.000000000000000e+00 0.000000000000000e+00 5.000000000000000e-01
3.500000000000000e-01 6.062177826489999e-01 0.000000000000000e+00
3.500000000000000e-01 6.062177826489999e-01 5.000000000000000e-01
5.000000000000000e-01 8.660254037839999e-01 0.000000000000000e+00
5.000000000000000e-01 8.660254037839999e-01 5.000000000000000e-01
0.000000000000000e+00 7.000000000000000e-01 0.000000000000000e+00
0.000000000000000e+00 7.000000000000000e-01 5.000000000000000e-01
0.000000000000000e+00 1.000000000000000e+00 0.000000000000000e+00
0.000000000000000e+00 1.000000000000000e+00 5.000000000000000e-01
6.062177826489999e-01 3.500000000000000e-01 1.000000000000000e+00
7.000000000000000e-01 0.000000000000000e+00 1.000000000000000e+00
8.660254037839999e-01 5.000000000000000e-01 1.000000000000000e+00
1.000000000000000e+00 0.000000000000000e+00 1.000000000000000e+00
3.500000000000000e-01 6.062177826489999e-01 1.000000000000000e+00
5.000000000000000e-01 8.660254037839999e-01 1.000000000000000e+00
0.000000000000000e+00 7.000000000000000e-01 1.000000000000000e+00
0.000000000000000e+00 1.000000000000000e+00 1.000000000000000e+00
6.062177826489999e-01 3.500000000000000e-01 1.500000000000000e+00
7.000000000000000e-01 0.000000000000000e+00 1.500000000000000e+00
8.660254037839999e-01 5.000000000000000e-01 1.500000000000000e+00
1.000000000000000e+00 0.000000000000000e+00 1.500000000000000e+00
3.500000000000000e-01 6.062177826489999e-01 1.500000000000000e+00
5.000000000000000e-01 8.660254037839999e-01 1.500000000000000e+00
0.000000000000000e+00 7.000000000000000e-01 1.500000000000000e+00
0.000000000000000e+00 1.000000000000000e+00 1.500000000000000e+00
0.000000000000000e+00 0.000000000000000e+00 3.500000000000000e+00
0.000000000000000e+00 0.000000000000000e+00 3.000000000000000e+00
0.000000000000000e+00 3.000000000000000e-01 3.000000000000000e+00
0.000000000000000e+00 3.000000000000000e-01 3.500000000000000e+00
5.000000000000000e-01 0.000000000000000e+00 3.500000000000000e+00
5.000000000000000e-01 0.000000000000000e+00 3.000000000000000e+00
5.000000000000000e-01 3.000000000000000e-01 3.000000000000000e+00
5.000000000000000e-01 3.000000000000000e-01 3.500000000000000e+00
0.000000000000000e+00 0.000000000000000e+00 2.500000000000000e+00
0.000000000000000e+00 3.000000000000000e-01 2.500000000000000e+00
5.000000000000000e-01 0.000000000000000e+00 2.500000000000000e+00
5.000000000000000e-01 3.000000000000000e-01 2.500000000000000e+00
1.000000000000000e+00 0.000000000000000e+00 3.500000000000000e+00
1.000000000000000e+00 0.000000000000000e+00 3.000000000000000e+00
1.000000000000000e+00 3.000000000000000e-01 3.000000000000000e+00
1.000000000000000e+00 3.000000000000000e-01 3.500000000000000e+00
1.000000000000000e+00 0.000000000000000e+00 2.500000000000000e+00
1.000000000000000e+00 3.000000000000000e-01 2.500000000000000e+00
1.500000000000000e+00 0.000000000000000e+00 3.500000000000000e+00
1.500000000000000e+00 0.000000000000000e+00 3.000000000000000e+00
1.500000000000000e+00 3.000000000000000e-01 3.000000000000000e+00
1.500000000000000e+00 3.000000000000000e-01 3.500000000000000e+00
1.500000000000000e+00 0.000000000000000e+00 2.500000000000000e+00
1.500000000000000e+00 3.000000000000000e-01 2.500000000000000e+00
2.000000000000000e+00 0.000000000000000e+00 3.500000000000000e+00
2.000000000000000e+00 0.000000000000000e+00 3.000000000000000e+00
2.000000000000000e+00 3.000000000000000e-01 3.000000000000000e+00
2.000000000000000e+00 3.000000000000000e-01 3.500000000000000e+00
2.000000000000000e+00 0.000000000000000e+00 2.500000000000000e+00
2.000000000000000e+00 3.000000000000000e-01 2.500000000000000e+00
7.000000000000000e-01 0.000000000000000e+00 5.000000000000000e+00
6.062177826489999e-01 3.500000000000000e-01 5.000000000000000e+00
6.062177826489999e-01 3.500000000000000e-01 5.500000000000000e+00
7.000000000000000e-01 0.000000000000000e+00 5.500000000000000e+00
1.000000000000000e+00 0.000000000000000e+00 5.000000000000000e+00
8.660254037839999e-01 5.000000000000000e-01 5.000000000000000e+00
8.660254037839999e-01 5.000000000000000e-01 5.500000000000000e+00
1.000000000000000e+00 0.000000000000000e+00 5.500000000000000e+00
6.761480784020000e-01 1.811733315720000e-01 5.000000000000000e+00
6.062177826489999e-01 3.500000000000000e-01 5.250000000000000e+00
6.761480784020000e-01 1.811733315720000e-01 5.500000000000000e+00
7.000000000000000e-01 0.000000000000000e+00 5.250000000000000e+00
8.500000000000000e-01 0.000000000000000e+00 5.000000000000000e+00
7.361215932170000e-01 4.250000000000000e-01 5.000000000000000e+00
7.361215932170000e-01 4.250000000000000e-01 5.500000000000000e+00
8.500000000000000e-01 0.000000000000000e+00 5.500000000000000e+00
9.659258262890000e-01 2.588190451030000e-01 5.000000000000000e+00
8.660254037839999e-01 5.000000000000000e-01 5.250000000000000e+00
9.659258262890000e-01 2.588190451030000e-01 5.500000000000000e+00
1.000000000000000e+00 0.000000000000000e+00 5.250000000000000e+00
3.500000000000000e-01 6.062177826489999e-01 5.000000000000000e+00
3.500000000000000e-01 6.062177826489999e-01 5.500000000000000e+00
5.000000000000000e-01 8.660254037839999e-01 5.000000000000000e+00
5.000000000000000e-01 8.660254037839999e-01 5.500000000000000e+00
4.949747468310000e-01 4.949747468310000e-01 5.000000000000000e+00
3.500000000000000e-01 6.062177826489999e-01 5.250000000000000e+00
4.949747468310000e-01 4.949747468310000e-01 5.500000000000000e+00
4.250000000000000e-01 7.361215932170000e-01 5.000000000000000e+00
4.250000000000000e-01 7.361215932170000e-01 5.500000000000000e+00
7.071067811870000e-01 7.071067811870000e-01 5.000000000000000e+00
5.000000000000000e-01 8.660254037839999e-01 5.250000000000000e+00
7.071067811870000e-01 7.071067811870000e-01 5.500000000000000e+00
0.000000000000000e+00 7.000000000000000e-01 5.000000000000000e+00
0.000000000000000e+00 7.000000000000000e-01 5.500000000000000e+00
0.000000000000000e+00 1.000000000000000e+00 5.000000000000000e+00
0.000000000000000e+00 1.000000000000000e+00 5.500000000000000e+00
1.811733315720000e-01 6.761480784020000e-01 5.000000000000000e+00
0.000000000000000e+00 7.000000000000000e-01 5.250000000000000e+00
1.811733315720000e-01 6.761480784020000e-01 5.500000000000000e+00
0.000000000000000e+00 8.500000000000000e-01 5.000000000000000e+00
0.000000000000000e+00 8.500000000000000e-01 5.500000000000000e+00
2.588190451030000e-01 9.659258262890000e-01 5.000000000000000e+00
0.000000000000000e+00 1.000000000000000e+00 5.250000000000000e+00
2.588190451030000e-01 9.659258262890000e-01 5.500000000000000e+00
6.062177826489999e-01 3.500000000000000e-01 6.000000000000000e+00
7.000000000000000e-01 0.000000000000000e+00 6.000000000000000e+00
8.660254037839999e-01 5.000000000000000e-01 6.000000000000000e+00
1.000000000000000e+00 0.000000000000000e+00 6.000000000000000e+00
6.062177826489999e-01 3.500000000000000e-01 5.750000000000000e+00
6.761480784020000e-01 1.811733315720000e-01 6.000000000000000e+00
7.000000000000000e-01 0.000000000000000e+00 5.750000000000000e+00
7.361215932170000e-01 4.250000000000000e-01 6.000000000000000e+00
8.500000000000000e-01 0.000000000000000e+00 6.000000000000000e+00
8.660254037839999e-01 5.000000000000000e-01 5.750000000000000e+00
9.659258262890000e-01 2.588190451030000e-01 6.000000000000000e+00
1.000000000000000e+00 0.000000000000000e+00 5.750000000000000e+00
3.500000000000000e-01 6.062177826489999e-01 6.000000000000000e+00
5.000000000000000e-01 8.660254037839999e-01 6.000000000000000e+00
3.500000000000000e-01 6.062177826489999e-01 5.750000000000000e+00
4.949747468310000e-01 4.949747468310000e-01 6.000000000000000e+00
4.250000000000000e-01 7.361215932170000e-01 6.000000000000000e+00
5.000000000000000e-01 8.660254037839999e-01 5.750000000000000e+00
7.071067811870000e-01 7.071067811870000e-01 6.000000000000000e+00
0.000000000000000e+00 7.000000000000000e-01 6.000000000000000e+00
0.000000000000000e+00 1.000000000000000e+00 6.000000000000000e+00
0.000000000000000e+00 7.000000000000000e-01 5.750000000000000e+00
1.811733315720000e-01 6.761480784020000e-01 6.000000000000000e+00
0.000000000000000e+00 8.500000000000000e-01 6.000000000000000e+00
0.000000000000000e+00 1.000000000000000e+00 5.750000000000000e+00
2.588190451030000e-01 9.659258262890000e-01 6.000000000000000e+00
6.062177826489999e-01 3.500000000000000e-01 6.500000000000000e+00
7.000000000000000e-01 0.000000000000000e+00 6.500000000000000e+00
8.660254037839999e-01 5.000000000000000e-01 6.500000000000000e+00
1.000000000000000e+00 0.000000000000000e+00 6.500000000000000e+00
6.062177826489999e-01 3.500000000000000e-01 6.250000000000000e+00
6.761480784020000e-01 1.811733315720000e-01 6.500000000000000e+00
7.000000000000000e-01 0.000000000000000e+00 6.250000000000000e+00
7.361215932170000e-01 4.250000000000000e-01 6.500000000000000e+00
8.500000000000000e-01 0.000000000000000e+00 6.500000000000000e+00
8.660254037839999e-01 5.000000000000000e-01 6.250000000000000e+00
9.659258262890000e-01 2.588190451030000e-01 6.500000000000000e+00
1.000000000000000e+00 0.000000000000000e+00 6.250000000000000e+00
[...]
  <PointData>
        <DataArray type="Float64" Name="displacement" NumberOfComponents="3" format="ascii">
3.354399975438480e-01 1.801473357787572e-01 -2.325400690099114e-02
1.684064733329664e-01 1.011849607615590e-01 -1.977454750891641e-02
1.113978928482632e-01 7.813474244476484e-02 -2.270536801583417e-02
2.596820050204872e-01 1.317193860747832e-01 -3.236117633677332e-02
3.298647068423755e-01 2.991597188249108e-01 2.447861924387664e-02
8.394457627132804e-02 1.850770066198400e-01 -1.252642288504328e-03
4.136953342869674e-02 1.353172274460152e-01 -5.188524387637726e-03
2.290481903487532e-01 2.667508188202211e-01 6.553482878753557e-03
4.738056819262913e-02 2.261972383123739e-02 -1.830391535897779e-06
3.528761436818208e-02 3.161286990149631e-02 -1.436125009123760e-02
-1.546139219161789e-02 3.317868854755771e-02 -1.313125294312923e-02
-5.925944696453479e-03 5.334799757104080e-02 -9.470257532769914e-03
0.000000000000000e+00 0.000000000000000e+00 0.000000000000000e+00
0.000000000000000e+00 0.000000000000000e+00 0.000000000000000e+00
0.000000000000000e+00 0.000000000000000e+00 0.000000000000000e+00
0.000000000000000e+00 0.000000000000000e+00 0.000000000000000e+00
9.280883017967835e-02 8.296716930123865e-02 -1.280293793322447e-02
1.807628029943690e-01 1.251338992977234e-01 -2.734717508094820e-02
4.523520055711067e-02 1.564306754179707e-01 -8.584560759210465e-03
1.680534348052638e-01 1.959308623356883e-01 4.116596946078752e-03
2.559934758697802e-02 1.830391789932108e-02 -5.034564383976437e-03
-2.259563315822810e-02 2.103032512832178e-02 -7.533500275476867e-03
0.000000000000000e+00 0.000000000000000e+00 0.000000000000000e+00
0.000000000000000e+00 0.000000000000000e+00 0.000000000000000e+00
7.172519378289939e-02 8.862039922027314e-02 -1.404549131359019e-02
1.380332715076585e-01 1.052631016407570e-01 -2.454749028466160e-02
4.020682258475603e-02 1.220430225259640e-01 -2.911310425910964e-03
1.317716614515358e-01 1.693868212812804e-01 -3.794779630758701e-03
3.486874409584496e-02 5.494563555017257e-02 2.826309342390812e-03
3.319544944329852e-03 8.306320852623235e-02 -1.510902421392077e-02
0.000000000000000e+00 0.000000000000000e+00 0.000000000000000e+00
0.000000000000000e+00 0.000000000000000e+00 0.000000000000000e+00
0.000000000000000e+00 0.000000000000000e+00 0.000000000000000e+00
0.000000000000000e+00 0.000000000000000e+00 0.000000000000000e+00
0.000000000000000e+00 0.000000000000000e+00 0.000000000000000e+00
0.000000000000000e+00 0.000000000000000e+00 0.000000000000000e+00
2.544653922104695e-02 8.468111091255218e-02 1.543884520527554e-02
2.395097796978774e-02 5.930616970473787e-02 2.465847755554920e-02
-2.093349161108746e-02 5.623721761727164e-02 -3.674866919900775e-04
-4.756722563379495e-02 7.677086042685899e-02 5.817851762749714e-03
0.000000000000000e+00 0.000000000000000e+00 0.000000000000000e+00
0.000000000000000e+00 0.000000000000000e+00 0.000000000000000e+00
2.600117264582934e-02 9.675455534345253e-03 3.712943598594605e-02
2.167112198403973e-04 3.551885386126582e-03 -8.996467008418121e-04
1.708229554292305e-02 2.575359187333459e-01 4.527830130754243e-02
3.159165907153699e-02 1.681823299787437e-01 5.864475200738586e-02
-3.829891944264854e-02 1.522045265590406e-01 -2.482583271477659e-04
-8.342385203464893e-02 2.333791333782437e-01 -5.098350821530708e-03
5.028682875298075e-02 6.213762356719896e-02 7.656242753450622e-02
4.173756183503758e-03 4.391935856230390e-02 6.668679203610862e-03
-9.612484271361119e-03 4.605693270293121e-01 6.120034015264592e-02
2.253962697136640e-02 3.158573543090461e-01 8.412110386511699e-02
-6.024708499303202e-02 2.903742908003802e-01 -2.862013171036707e-03
-1.116368800939490e-01 4.264859293367828e-01 -2.419294173521628e-02
5.814201509308625e-02 1.723376428224148e-01 1.080645250965836e-01
-1.049949534214779e-02 1.500366205427936e-01 1.818571052224895e-02
-4.689755603069965e-02 6.588878903405203e-01 6.028108971656847e-02
1.788196384352180e-03 4.723723680916553e-01 9.697129205056464e-02
-8.216197844915525e-02 4.356113322980222e-01 -9.867090418512020e-03
-1.492153329780483e-01 6.279760705528642e-01 -4.772657670822650e-02
4.477256482492639e-02 2.998591063682443e-01 1.230017407742957e-01
-2.696828131307585e-02 2.737727409524660e-01 2.192499420584649e-02
3.866420511482737e-01 2.364018220868707e-01 -4.310812143712411e-02
2.025042500933666e-01 1.441644023587877e-01 -2.067513923839296e-02
1.463077747191244e-01 1.167122844348882e-01 -3.011950014540825e-02
2.718914796928275e-01 1.745550497262783e-01 -4.917631648948743e-02
3.793866515562932e-01 3.598965395962466e-01 4.125255398054571e-02
1.008785973909719e-01 2.362786529180705e-01 6.502367139020080e-03
7.664297494305353e-02 1.948838422360406e-01 -1.539149268068274e-03
2.489366396348474e-01 2.803857943560964e-01 7.117845587315837e-03
2.944681526583612e-01 2.013266304456259e-01 -3.158651727536106e-02
1.767854545401667e-01 1.282588802860423e-01 -2.731017744174770e-02
2.069737150199540e-01 1.526361596159891e-01 -4.007866814273984e-02
3.317332473564841e-01 1.995463802638001e-01 -4.864108001466824e-02
3.760914954598060e-01 3.020547447846520e-01 -2.909466353059046e-03
1.519407452876795e-01 1.895697019271603e-01 -5.859498323477968e-03
1.103513097599862e-01 1.557487193243533e-01 -1.418924781416873e-02
2.612020514440019e-01 2.266115257189299e-01 -2.129604256111490e-02
2.421159550268463e-01 3.118495520426704e-01 2.598951940533402e-02
9.088154512537586e-02 2.143305947702284e-01 -5.437657417091377e-04
1.557774853127350e-01 2.485337505549893e-01 6.380817673970180e-03
3.001139758135078e-01 3.172369063897497e-01 1.843544109640486e-02
6.126513498640753e-02 3.407923996385964e-02 6.802618769816293e-04
5.177068406952513e-02 3.652569630684111e-02 -1.204724792045091e-02
-9.672336850994437e-03 6.077816319497713e-02 -9.894539652399127e-03
-9.333885550247197e-03 6.095327772462165e-02 -6.552494354269575e-03
1.205714259421353e-01 8.400370792237280e-02 -8.690578042843409e-03
6.030093485592454e-02 3.780541837472223e-02 -8.685903284704399e-03
9.405023175755947e-02 7.558231675850570e-02 -2.053329158284305e-02
2.447603573282241e-02 4.409326993205645e-02 -5.292522490759321e-03
2.079291881050874e-02 4.543855614453269e-02 -8.838664285940634e-03
2.211070657602695e-02 1.433822208860939e-01 -3.819028378229257e-03
-8.559843550995008e-03 6.352225420596654e-02 -6.323354878632238e-03
1.912174958923185e-02 1.284698473323294e-01 -6.927896593096879e-03
0.000000000000000e+00 0.000000000000000e+00 0.000000000000000e+00
0.000000000000000e+00 0.000000000000000e+00 0.000000000000000e+00
0.000000000000000e+00 0.000000000000000e+00 0.000000000000000e+00
0.000000000000000e+00 0.000000000000000e+00 0.000000000000000e+00
2.314733481675386e-02 6.720288018770432e-03 4.636230448643535e-03
0.000000000000000e+00 0.000000000000000e+00 0.000000000000000e+00
2.144720107157319e-02 1.077379064611715e-02 -6.010018141040397e-03
0.000000000000000e+00 0.000000000000000e+00 0.000000000000000e+00
0.000000000000000e+00 0.000000000000000e+00 0.000000000000000e+00
-1.072356922761691e-02 1.048996031179728e-02 -7.034349371159555e-03
0.000000000000000e+00 0.000000000000000e+00 0.000000000000000e+00
-1.057735451403817e-02 1.496765801605848e-02 -4.909051930580997e-03
1.015288419880562e-01 8.909535589218023e-02 -2.828643146067208e-02
1.971393506993795e-01 1.283323009374222e-01 -4.970321169417073e-02
5.276451856936373e-02 1.506394471296160e-01 -7.893273010177122e-04
1.849830425069868e-01 2.099484058995326e-01 -1.617601438104823e-02
1.216786098167740e-01 1.038138476132075e-01 -2.919808641766426e-02
1.473131558005900e-01 1.141254597843290e-01 -3.772661717788704e-02
2.287037923931896e-01 1.516092139262511e-01 -4.975049223349141e-02
7.694945547367529e-02 1.194922778408332e-01 -1.476254076768903e-02
1.905262375372420e-01 1.688057879364088e-01 -3.332480327401408e-02
6.373287300495453e-02 1.747489385897716e-01 -1.117356162712873e-03
1.132567678483925e-01 1.892089633199744e-01 -2.512642016041291e-03
2.124663284375115e-01 2.433486225554350e-01 -5.146864236623748e-03
3.607715323250294e-02 3.215401391259329e-02 -1.350967119535824e-02
-8.931853732660958e-03 5.319283335482183e-02 -3.529785587326259e-03
4.352306396712215e-02 3.551156677769476e-02 -1.277516202539331e-02
6.442269961995606e-02 6.072223949924212e-02 -2.051967322461927e-02
1.322415640298786e-02 4.089409283420911e-02 -8.356601168930810e-03
-8.931816409759713e-03 5.809761095969304e-02 -6.332305518421196e-03
1.132113419731945e-02 1.012760184543426e-01 -2.777550120617922e-03
0.000000000000000e+00 0.000000000000000e+00 0.000000000000000e+00
0.000000000000000e+00 0.000000000000000e+00 0.000000000000000e+00
0.000000000000000e+00 0.000000000000000e+00 0.000000000000000e+00
1.579214066636283e-02 1.085835223820425e-02 -6.557518065514757e-03
0.000000000000000e+00 0.000000000000000e+00 0.000000000000000e+00
0.000000000000000e+00 0.000000000000000e+00 0.000000000000000e+00
-1.073902547210626e-02 1.598976422548307e-02 -2.476987199007237e-03
7.278064724889599e-02 5.290415412809932e-02 -3.045277251721346e-02
1.535545446598365e-01 8.305453506991878e-02 -5.118151465389780e-02
3.353573845384916e-02 1.061544291800390e-01 -1.737239052166813e-03
1.440563171632145e-01 1.547636299153833e-01 -2.361130361259009e-02
8.607164060755394e-02 7.252190665549094e-02 -2.869631298928446e-02
1.105364110033312e-01 7.193550260997117e-02 -3.930228680425944e-02
1.732298491729128e-01 1.055557896848384e-01 -4.999539568785553e-02
5.274885156382840e-02 7.939977411279195e-02 -1.579596261927864e-02
1.489134258802749e-01 1.188144755350292e-01 -3.740928252456555e-02
4.442561945099202e-02 1.274957196980260e-01 -1.455724563587715e-03
8.306104993927754e-02 1.371739677611471e-01 -8.876455385459335e-03
1.629670881016812e-01 1.799648237861660e-01 -2.135329780134246e-02
2.327835974291950e-02 1.187039816494154e-02 -1.725252621741215e-02
-9.334239615128498e-03 2.780758905518032e-02 1.593761960887523e-03
2.856022019801462e-02 2.518820453522029e-02 -1.474174101379150e-02
4.402670903799855e-02 3.152882386805533e-02 -2.412851146740948e-02
6.620480487995834e-03 1.849828406985576e-02 -7.798326086214868e-03
-8.898352552287681e-03 4.360235888913854e-02 -7.139479932603787e-04
2.560964274144021e-03 6.605397288044518e-02 4.716498437935754e-04
0.000000000000000e+00 0.000000000000000e+00 0.000000000000000e+00
0.000000000000000e+00 0.000000000000000e+00 0.000000000000000e+00
0.000000000000000e+00 0.000000000000000e+00 0.000000000000000e+00
9.519377399937384e-03 2.255858506877027e-03 -1.019891069842294e-02
0.000000000000000e+00 0.000000000000000e+00 0.000000000000000e+00
0.000000000000000e+00 0.000000000000000e+00 0.000000000000000e+00
-5.386910518932270e-03 7.002837055095796e-03 2.284707144823017e-03
0.000000000000000e+00 0.000000000000000e+00 0.000000000000000e+00
0.000000000000000e+00 0.000000000000000e+00 0.000000000000000e+00
0.000000000000000e+00 0.000000000000000e+00 0.000000000000000e+00
0.000000000000000e+00 0.000000000000000e+00 0.000000000000000e+00
2.496548346480146e-02 1.129127189022097e-01 1.992394875871556e-02
4.087863423299337e-02 1.061061530007441e-01 3.200117110083622e-02
-5.145569538572270e-02 8.865539189586154e-02 1.324256103429163e-02
-8.109618938159299e-02 9.215685150917739e-02 2.262202964169460e-02
0.000000000000000e+00 0.000000000000000e+00 0.000000000000000e+00
0.000000000000000e+00 0.000000000000000e+00 0.000000000000000e+00
0.000000000000000e+00 0.000000000000000e+00 0.000000000000000e+00
0.000000000000000e+00 0.000000000000000e+00 0.000000000000000e+00
1.893480484665848e-02 2.942139813753348e-02 2.951619498453265e-03
2.551910696996530e-02 3.395431406964528e-02 1.235219703352385e-02
-2.528594098593464e-02 2.757007281346844e-02 3.247600249346557e-03
-3.959665426456515e-02 2.537333161681322e-02 1.558977535277063e-02
3.485405701395024e-02 1.153494376512455e-01 2.573790566489069e-02
-4.995683348746790e-03 9.480222889816263e-02 2.355693116308543e-02
-6.822124294405262e-02 9.548734463360985e-02 1.634351264025491e-02
-2.763654093611807e-02 9.947935831882529e-02 2.112449368912278e-02
0.000000000000000e+00 0.000000000000000e+00 0.000000000000000e+00
0.000000000000000e+00 0.000000000000000e+00 0.000000000000000e+00
6.534121372266613e-02 6.882444333425139e-02 4.740305793932150e-02
-1.146784484808172e-02 5.123651606461726e-02 1.119740690768834e-02
0.000000000000000e+00 0.000000000000000e+00 0.000000000000000e+00
0.000000000000000e+00 0.000000000000000e+00 0.000000000000000e+00
0.000000000000000e+00 0.000000000000000e+00 0.000000000000000e+00
3.429833304261257e-02 1.746467377198018e-02 2.387510119865504e-02
-2.389459610811257e-03 7.601475603543007e-03 1.193825271424706e-03
4.839301529479428e-02 9.076284354094245e-02 3.782822558044962e-02
2.760037023552774e-02 5.780175757387588e-02 2.985664545043216e-02
-3.305573246693012e-02 7.113990103964739e-02 1.087512305416344e-02
-1.103139116483603e-02 3.740088076716834e-01 6.331654681114705e-02
2.601370210813796e-02 3.346965383638100e-01 7.569450307009830e-02
-1.173636629779048e-01 2.939285729162576e-01 4.042805222947921e-02
-1.702753442873209e-01 3.240311127961933e-01 3.697420427095922e-02
1.445271210138843e-02 2.323632882606702e-01 4.228951510749456e-02
4.066839626564432e-02 2.093012456362925e-01 5.430542163092649e-02
-8.049442065786755e-02 1.799659743321281e-01 2.726060828309466e-02
-1.250827366978226e-01 1.965296747245812e-01 3.053710990505150e-02
9.183430189642345e-03 3.585771066384045e-01 6.953400876849605e-02
-4.622822634613128e-02 3.131617955293900e-01 5.711179352938881e-02
-1.449722516258281e-01 3.110204061401273e-01 3.861370264900317e-02
-8.948075003716018e-02 3.486805725651932e-01 5.079149838973918e-02
7.058391564248492e-02 2.774489115033779e-01 8.931607236939344e-02
-6.703028109570587e-02 2.377076306855730e-01 4.049444558086814e-02
7.828488658969669e-02 1.604647409766968e-01 7.062366748908303e-02
-3.361618718748840e-02 1.305180308280851e-01 2.501412198870981e-02
4.458636930741750e-02 3.069503072319835e-01 8.219718037439332e-02
2.827601730310742e-03 2.572835467650971e-01 6.512495351411692e-02
-9.357436559426334e-02 2.681305848547315e-01 4.030557044498402e-02
-8.993069203096499e-02 7.008657508066216e-01 9.345627897905484e-02
-3.982393382287679e-02 6.226962451500601e-01 1.040202983970955e-01
-2.096355798274207e-01 5.622836484718213e-01 4.948385153603481e-02
-2.709731374751438e-01 6.275861482342385e-01 4.128687877923237e-02
-4.535870251368693e-02 5.311919780375971e-01 8.122650706941249e-02
-2.087473482866702e-03 4.743263802367408e-01 9.226495857311444e-02
-1.598367730462768e-01 4.228465652044321e-01 4.926927758788507e-02
-2.186852998701149e-01 4.695922578294379e-01 4.231170823801512e-02
-6.390339990210649e-02 6.625284076110174e-01 9.945586365636389e-02
-1.249212911733856e-01 5.915028095123436e-01 7.613286408646273e-02
-2.366991927059223e-01 5.978816333775930e-01 4.768063201898815e-02
-1.816259759510770e-01 6.632863100207065e-01 6.649066270067769e-02
1.309585982930673e-02 5.430498589588326e-01 1.138868528002710e-01
-1.483295507346043e-01 4.886555526853052e-01 5.499492120632246e-02
4.674564145299868e-02 4.062864924857226e-01 1.041759703758904e-01
-1.056978625384520e-01 3.582380492457002e-01 4.896726837308173e-02
-1.539610326376814e-02 5.823924584555867e-01 1.085175272143008e-01
-6.702320812505698e-02 5.157577883418462e-01 8.480198594895851e-02
-1.802758105201961e-01 5.260754018612589e-01 5.116406548614756e-02
-2.041870423408682e-01 1.036101373619603e+00 9.720000402407976e-02
-1.361398732664439e-01 9.233411546930169e-01 1.103828641784160e-01
-3.112516125201676e-01 8.572600671153751e-01 4.086144682213642e-02
-3.899263770407650e-01 9.756739442654300e-01 1.716652448707107e-02
-1.462382375544628e-01 8.720455612293179e-01 9.873711154533897e-02
-8.624974480815559e-02 7.734402791218095e-01 1.099943631116898e-01
-2.608815049061908e-01 7.077961915061720e-01 4.573974406118586e-02
-3.268515721805548e-01 8.039566192184733e-01 3.210748760237803e-02
-1.677443119658151e-01 9.806195153417081e-01 1.051275089366355e-01
-2.230535168557301e-01 8.910558782453795e-01 7.585738794306894e-02
-3.498906548413544e-01 9.098352836634134e-01 3.071001478506015e-02
-2.975166874064714e-01 1.002919992020769e+00 5.762251347280094e-02
-7.172652209622929e-02 8.297349145787823e-01 1.227482430817190e-01
-2.411542194778779e-01 7.692260820472941e-01 5.761902146479151e-02
-2.758316521557377e-02 6.854032056033310e-01 1.196537188704431e-01
-1.942407482798868e-01 6.268852125829248e-01 5.663492424888274e-02
-1.044860403774618e-01 8.740883792292486e-01 1.163350800464575e-01
-1.566013416403050e-01 7.990648735328207e-01 9.004273944216959e-02
-2.746454608775197e-01 8.123583968640334e-01 5.054524708838185e-02
3.916143317735161e-01 2.412029464716111e-01 -4.203302993434650e-02
2.021970876819197e-01 1.492359105416360e-01 -1.936925717402900e-02
1.471484224165228e-01 1.193556194223861e-01 -2.982010081448536e-02
2.753780110782569e-01 1.784627254582346e-01 -4.983071938549988e-02
3.826356834902612e-01 3.654394140574708e-01 4.000251361616464e-02
9.912744954052721e-02 2.430740132848922e-01 1.016163111847205e-02
7.780963266723857e-02 1.981514258363317e-01 -2.186261021630877e-03
2.518958014669923e-01 2.857441085741742e-01 7.858859498887137e-03
2.979902554675421e-01 2.060259896993236e-01 -3.161420835944661e-02
1.787009682545486e-01 1.312382381008038e-01 -2.762517835373200e-02
2.091511562405518e-01 1.562446469974130e-01 -4.062276401481804e-02
3.319278642209461e-01 2.055228036375130e-01 -4.737733566445593e-02
3.768349205931769e-01 3.062412391875664e-01 -3.555691247826830e-03
1.543304040928215e-01 1.932604184292213e-01 -6.117824858136134e-03
1.115994534945929e-01 1.584350201513580e-01 -1.460289825221304e-02
2.625215299083273e-01 2.308836302085524e-01 -2.192479345995157e-02
2.438725669998968e-01 3.167507317784009e-01 2.666811701067788e-02
9.125417986039795e-02 2.185248846324218e-01 -9.637665083702335e-05
1.564776262430727e-01 2.532846392438222e-01 7.896638801613648e-03
3.004281539223095e-01 3.239984130385637e-01 2.069366745853343e-02
2.230176610067805e-01 2.309723938929576e-01 -1.233983255645805e-02
2.553188630059232e-01 1.762262586969268e-01 -3.906877231313764e-02
1.947980086326158e-01 2.823476635774576e-01 1.111489121266573e-02
3.166976833281904e-01 2.644502937870657e-01 -1.631731629849349e-02
1.342714054272974e-01 1.746068544428049e-01 -1.225344215197500e-02
2.663841775506037e-01 2.632604079742432e-01 -2.568128721357932e-03
1.826817202802512e-01 2.039134901982985e-01 -1.600438931523633e-02
6.255432513592203e-02 3.552404852575718e-02 3.640149969443702e-05
5.268641702906311e-02 3.728201863829148e-02 -1.211377295647835e-02
-1.071769648381569e-02 6.300325224894977e-02 -8.767720675672781e-03
-1.046085037199956e-02 6.233165311291661e-02 -5.537893531034670e-03
1.218287874646229e-01 8.764634209416892e-02 -8.286359637411108e-03
6.096448470751573e-02 3.822652523488490e-02 -8.575191662136394e-03
9.433029222305592e-02 7.781339199322720e-02 -2.053208795226013e-02
2.560093036925658e-02 4.721821651150677e-02 -5.259412925425775e-03
2.109777224181422e-02 4.796616081753093e-02 -9.160985300219287e-03
2.426428548847812e-02 1.465290420713350e-01 -4.277183430955937e-03
-9.093467345169722e-03 6.508936544080857e-02 -7.424206799262524e-03
1.946973780688562e-02 1.308776149009896e-01 -6.974572706720718e-03
6.604570135470224e-02 1.092690552788155e-01 -1.051001427377779e-02
1.120503146874661e-01 8.255467142807224e-02 -1.697823431561438e-02
2.195782584344927e-02 1.396228370557417e-01 -4.308168678265341e-03
2.544956088649756e-02 4.949288199984260e-02 -7.512343671406189e-03
7.157217598339752e-02 1.149704920061419e-01 -6.277079181676922e-03
5.623846677800690e-02 1.024204022197907e-01 -1.260341197202122e-02
0.000000000000000e+00 0.000000000000000e+00 0.000000000000000e+00
0.000000000000000e+00 0.000000000000000e+00 0.000000000000000e+00
0.000000000000000e+00 0.000000000000000e+00 0.000000000000000e+00
0.000000000000000e+00 0.000000000000000e+00 0.000000000000000e+00
2.453603215656878e-02 7.509462430950137e-03 5.216114552670290e-03
0.000000000000000e+00 0.000000000000000e+00 0.000000000000000e+00