<?xml version="1.0" ?> 
<!-- 
# vtk DataFile Version 3.0
-->
<VTKFile type="UnstructuredGrid" version="0.1" compressor="vtkZLibDataCompressor" byte_order="LittleEndian">
  <UnstructuredGrid>
    <FieldData>
      <DataArray type="Float64" Name="TIME" NumberOfTuples="1" format="ascii">
1.00000001
      </DataArray>
    </FieldData>

    <Piece NumberOfPoints="927" NumberOfCells="0" >
      <Points>
        <DataArray type="Float64" NumberOfComponents="3" format="ascii">
7.000000000000000e-01 0.000000000000000e+00 0.000000000000000e+00
6.062177826489999e-01 3.500000000000000e-01 0.000000000000000e+00
6.062177826489999e-01 3.500000000000000e-01 5.000000000000000e-01
7.000000000000000e-01 0.000000000000000e+00 5.000000000000000e-01
1.000000000000000e+00 0.000000000000000e+00 0.000000000000000e+00
8.660254037839999e-01 5.000000000000000e-01 0.000000000000000e+00
8.660254037839999e-01 5.000000000000000e-01 5.000000000000000e-01
1.000000000000000e+00 0.000000000000000e+00 5.000000000000000e-01
3.500000000000000e-01 6.062177826489999e-01 0.000000000000000e+00
3.500000000000000e-01 6.062177826489999e-01 5.000000000000000e-01
5.000000000000000e-01 8.660254037839999e-01 0.000000000000000e+00
5.000000000000000e-01 8.660254037839999e-01 5.000000000000000e-01
0.000000000000000e+00 7.000000000000000e-01 0.000000000000000e+00
0.000000000000000e+00 7.000000000000000e-01 5.000000000000000e-01
0.000000000000000e+00 1.000000000000000e+00 0.000000000000000e+00
0.000000000000000e+00 1.000000000000000e+00 5.000000000000000e-01
6.062177826489999e-01 3.500000000000000e-01 1.000000000000000e+00
7.000000000000000e-01 0.000000000000000e+00 1.000000000000000e+00
8.660254037839999e-01 5.000000000000000e-01 1.000000000000000e+00
1.000000000000000e+00 0.000000000000000e+00 1.000000000000000e+00
3.500000000000000e-01 6.062177826489999e-01 1.000000000000000e+00
5.000000000000000e-01 8.660254037839999e-01 1.000000000000000e+00
0.000000000000000e+00 7.000000000000000e-01 1.000000000000000e+00
0.000000000000000e+00 1.000000000000000e+00 1.000000000000000e+00
6.062177826489999e-01 3.500000000000000e-01 1.500000000000000e+00
7.000000000000000e-01 0.000000000000000e+00 1.500000000000000e+00
8.660254037839999e-01 5.000000000000000e-01 1.500000000000000e+00
1.000000000000000e+00 0.000000000000000e+00 1.500000000000000e+00
3.500000000000000e-01 6.062177826489999e-01 1.500000000000000e+00
5.000000000000000e-01 8.660254037839999e-01 1.500000000000000e+00
0.000000000000000e+00 7.000000000000000e-01 1.500000000000000e+00
0.000000000000000e+00 1.000000000000000e+00 1.500000000000000e+00
0.000000000000000e+00 0.000000000000000e+00 3.500000000000000e+00
0.000000000000000e+00 0.000000000000000e+00 3.000000000000000e+00
0.000000000000000e+00 3.000000000000000e-01 3.000000000000000e+00
0.000000000000000e+00 3.000000000000000e-01 3.500000000000000e+00
5.000000000000000e-01 0.000000000000000e+00 3.500000000000000e+00
5.000000000000000e-01 0.000000000000000e+00 3.000000000000000e+00
5.000000000000000e-01 3.000000000000000e-01 3.000000000000000e+00
5.000000000000000e-01 3.000000000000000e-01 3.500000000000000e+00
0.000000000000000e+00 0.000000000000000e+00 2.500000000000000e+00
0.000000000000000e+00 3.000000000000000e-01 2.500000000000000e+00
5.000000000000000e-01 0.000000000000000e+00 2.500000000000000e+00
5.000000000000000e-01 3.000000000000000e-01 2.500000000000000e+00
1.000000000000000e+00 0.000000000000000e+00 3.500000000000000e+00
1.000000000000000e+00 0.000000000000000e+00 3.000000000000000e+00
1.000000000000000e+00 3.000000000000000e-01 3.000000000000000e+00
1.000000000000000e+00 3.000000000000000e-01 3.500000000000000e+00
1.000000000000000e+00 0.000000000000000e+00 2.500000000000000e+00
1.000000000000000e+00 3.000000000000000e-01 2.500000000000000e+00
1.500000000000000e+00 0.000000000000000e+00 3.500000000000000e+00
1.500000000000000e+00 0.000000000000000e+00 3.000000000000000e+00
1.500000000000000e+00 3.000000000000000e-01 3.000000000000000e+00
1.500000000000000e+00 3.000000000000000e-01 3.500000000000000e+00
1.500000000000000e+00 0.000000000000000e+00 2.500000000000000e+00
1.500000000000000e+00 3.000000000000000e-01 2.500000000000000e+00
2.000000000000000e+00 0.000000000000000e+00 3.500000000000000e+00
2.000000000000000e+00 0.000000000000000e+00 3.000000000000000e+00
2.000000000000000e+00 3.000000000000000e-01 3.000000000000000e+00
2.000000000000000e+00 3.000000000000000e-01 3.500000000000000e+00
2.000000000000000e+00 0.000000000000000e+00 2.500000000000000e+00
2.000000000000000e+00 3.000000000000000e-01 2.500000000000000e+00
7.000000000000000e-01 0.000000000000000e+00 5.000000000000000e+00
6.062177826489999e-01 3.500000000000000e-01 5.000000000000000e+00
6.062177826489999e-01 3.500000000000000e-01 5.500000000000000e+00
7.000000000000000e-01 0.000000000000000e+00 5.500000000000000e+00
1.000000000000000e+00 0.000000000000000e+00 5.000000000000000e+00
8.660254037839999e-01 5.000000000000000e-01 5.000000000000000e+00
8.660254037839999e-01 5.000000000000000e-01 5.500000000000000e+00
1.000000000000000e+00 0.000000000000000e+00 5.500000000000000e+00
6.761480784020000e-01 1.811733315720000e-01 5.000000000000000e+00
6.062177826489999e-01 3.500000000000000e-01 5.250000000000000e+00
6.761480784020000e-01 1.811733315720000e-01 5.500000000000000e+00
7.000000000000000e-01 0.000000000000000e+00 5.250000000000000e+00
8.500000000000000e-01 0.000000000000000e+00 5.000000000000000e+00
7.361215932170000e-01 4.250000000000000e-01 5.000000000000000e+00
7.361215932170000e-01 4.250000000000000e-01 5.500000000000000e+00
8.500000000000000e-01 0.000000000000000e+00 5.500000000000000e+00
9.659258262890000e-01 2.588190451030000e-01 5.000000000000000e+00
8.660254037839999e-01 5.000000000000000e-01 5.250000000000000e+00
9.659258262890000e-01 2.588190451030000e-01 5.500000000000000e+00
1.000000000000000e+00 0.000000000000000e+00 5.250000000000000e+00
3.500000000000000e-01 6.062177826489999e-01 5.000000000000000e+00
3.500000000000000e-01 6.062177826489999e-01 5.500000000000000e+00
5.000000000000000e-01 8.660254037839999e-01 5.000000000000000e+00
5.000000000000000e-01 8.660254037839999e-01 5.500000000000000e+00
4.949747468310000e-01 4.949747468310000e-01 5.000000000000000e+00
3.500000000000000e-01 6.062177826489999e-01 5.250000000000000e+00
4.949747468310000e-01 4.949747468310000e-01 5.500000000000000e+00
4.250000000000000e-01 7.361215932170000e-01 5.000000000000000e+00
4.250000000000000e-01 7.361215932170000e-01 5.500000000000000e+00
7.071067811870000e-01 7.071067811870000e-01 5.000000000000000e+00
5.000000000000000e-01 8.660254037839999e-01 5.250000000000000e+00
7.071067811870000e-01 7.071067811870000e-01 5.500000000000000e+00
0.000000000000000e+00 7.000000000000000e-01 5.000000000000000e+00
0.000000000000000e+00 7.000000000000000e-01 5.500000000000000e+00
0.000000000000000e+00 1.000000000000000e+00 5.000000000000000e+00
0.000000000000000e+00 1.000000000000000e+00 5.500000000000000e+00
1.811733315720000e-01 6.761480784020000e-01 5.000000000000000e+00
0.000000000000000e+00 7.000000000000000e-01 5.250000000000000e+00
1.811733315720000e-01 6.761480784020000e-01 5.500000000000000e+00
0.000000000000000e+00 8.500000000000000e-01 5.000000000000000e+00
0.000000000000000e+00 8.500000000000000e-01 5.500000000000000e+00
2.588190451030000e-01 9.659258262890000e-01 5.000000000000000e+00
0.000000000000000e+00 1.000000000000000e+00 5.250000000000000e+00
2.588190451030000e-01 9.659258262890000e-01 5.500000000000000e+00
6.062177826489999e-01 3.500000000000000e-01 6.000000000000000e+00
7.000000000000000e-01 0.000000000000000e+00 6.000000000000000e+00
8.660254037839999e-01 5.000000000000000e-01 6.000000000000000e+00
1.000000000000000e+00 0.000000000000000e+00 6.000000000000000e+00
6.062177826489999e-01 3.500000000000000e-01 5.750000000000000e+00
6.761480784020000e-01 1.811733315720000e-01 6.000000000000000e+00
7.000000000000000e-01 0.000000000000000e+00 5.750000000000000e+00
7.361215932170000e-01 4.250000000000000e-01 6.000000000000000e+00
8.500000000000000e-01 0.000000000000000e+00 6.000000000000000e+00
8.660254037839999e-01 5.000000000000000e-01 5.750000000000000e+00
9.659258262890000e-01 2.588190451030000e-01 6.000000000000000e+00
1.000000000000000e+00 0.000000000000000e+00 5.750000000000000e+00
3.500000000000000e-01 6.062177826489999e-01 6.000000000000000e+00
5.000000000000000e-01 8.660254037839999e-01 6.000000000000000e+00
3.500000000000000e-01 6.062177826489999e-01 5.750000000000000e+00
4.949747468310000e-01 4.949747468310000e-01 6.000000000000000e+00
4.250000000000000e-01 7.361215932170000e-01 6.000000000000000e+00
5.000000000000000e-01 8.660254037839999e-01 5.750000000000000e+00
7.071067811870000e-01 7.071067811870000e-01 6.000000000000000e+00
0.000000000000000e+00 7.000000000000000e-01 6.000000000000000e+00
0.000000000000000e+00 1.000000000000000e+00 6.000000000000000e+00
0.000000000000000e+00 7.000000000000000e-01 5.750000000000000e+00
1.811733315720000e-01 6.761480784020000e-01 6.000000000000000e+00
0.000000000000000e+00 8.500000000000000e-01 6.000000000000000e+00
0.000000000000000e+00 1.000000000000000e+00 5.750000000000000e+00
2.588190451030000e-01 9.659258262890000e-01 6.000000000000000e+00
6.062177826489999e-01 3.500000000000000e-01 6.500000000000000e+00
7.000000000000000e-01 0.000000000000000e+00 6.500000000000000e+00
8.660254037839999e-01 5.000000000000000e-01 6.500000000000000e+00
1.000000000000000e+00 0.000000000000000e+00 6.500000000000000e+00
6.062177826489999e-01 3.500000000000000e-01 6.250000000000000e+00
6.761480784020000e-01 1.811733315720000e-01 6.500000000000000e+00
7.000000000000000e-01 0.000000000000000e+00 6.250000000000000e+00
7.361215932170000e-01 4.250000000000000e-01 6.500000000000000e+00
8.500000000000000e-01 0.000000000000000e+00 6.500000000000000e+00
8.660254037839999e-01 5.000000000000000e-01 6.250000000000000e+00
9.659258262890000e-01 2.588190451030000e-01 6.500000000000000e+00
1.000000000000000e+00 0.000000000000000e+00 6.250000000000000e+00
[...]
  <PointData>
        <DataArray type="Float64" Name="displacement" NumberOfComponents="3" format="ascii">
2.523428470042151e-01 1.177769090020784e-01 -2.063996838116123e-02
1.188544741004029e-01 6.496757964908015e-02 -1.922403407238170e-02
8.301937045992326e-02 5.348477736434247e-02 -1.753902115820938e-02
2.109103737141566e-01 9.421714316732736e-02 -2.376860111318629e-02
2.479283847849258e-01 2.170699792291006e-01 -4.443705597881077e-04
5.737653433862366e-02 1.357493223704023e-01 -7.949366908836896e-03
2.525703982447317e-02 9.994900115597211e-02 -1.031623151132183e-02
1.917049557367390e-01 2.131159389687821e-01 -2.392794991310891e-03
2.952426623215959e-02 1.252736048926615e-02 -5.394932213329044e-04
2.425057654296434e-02 2.285876066489882e-02 -1.200908446867376e-02
-1.603880961621201e-02 2.160387517292168e-02 -1.342213950453377e-02
-3.215638471774534e-03 4.148358489762118e-02 -9.253448852223428e-03
0.000000000000000e+00 0.000000000000000e+00 0.000000000000000e+00
0.000000000000000e+00 0.000000000000000e+00 0.000000000000000e+00
0.000000000000000e+00 0.000000000000000e+00 0.000000000000000e+00
0.000000000000000e+00 0.000000000000000e+00 0.000000000000000e+00
8.074663433694261e-02 6.840024184532538e-02 -8.432889550084699e-03
1.568911909359809e-01 1.040119419122259e-01 -1.801541098011647e-02
4.119924004012625e-02 1.344457730083516e-01 -1.301579063643571e-02
1.464763563711474e-01 1.653742057870466e-01 1.678009330754496e-03
2.086550037551119e-02 1.222372843360065e-02 -2.281316369600830e-03
-2.167335589940058e-02 1.300713768443075e-02 -8.888478491621575e-03
0.000000000000000e+00 0.000000000000000e+00 0.000000000000000e+00
0.000000000000000e+00 0.000000000000000e+00 0.000000000000000e+00
6.918260608759506e-02 8.425950806902516e-02 -1.018768303543012e-02
1.288773269150126e-01 9.761499620801410e-02 -1.443055429570922e-02
4.094312927541784e-02 1.132716377703647e-01 -7.017033241076576e-03
1.246082321590193e-01 1.556732325038656e-01 -2.874039878354441e-03
3.540010189840716e-02 5.478543320344584e-02 4.398925066616121e-03
6.936888226134134e-03 8.167602611622382e-02 -1.747890650949809e-02
0.000000000000000e+00 0.000000000000000e+00 0.000000000000000e+00
0.000000000000000e+00 0.000000000000000e+00 0.000000000000000e+00
0.000000000000000e+00 0.000000000000000e+00 0.000000000000000e+00
0.000000000000000e+00 0.000000000000000e+00 0.000000000000000e+00
0.000000000000000e+00 0.000000000000000e+00 0.000000000000000e+00
0.000000000000000e+00 0.000000000000000e+00 0.000000000000000e+00
1.639591068038043e-02 4.701999434831773e-02 9.196895830877733e-03
1.473640613008001e-02 3.223188164301638e-02 1.442555403959931e-02
-1.070840738797582e-02 3.125643788294590e-02 -1.119155834455484e-04
-2.509626834386774e-02 4.449075231391042e-02 3.462633526130639e-03
0.000000000000000e+00 0.000000000000000e+00 0.000000000000000e+00
0.000000000000000e+00 0.000000000000000e+00 0.000000000000000e+00
1.379731435901948e-02 3.817997886327371e-03 2.068529220823953e-02
1.015693001446364e-04 1.543141544907102e-03 -7.403892475641825e-04
1.940829655484624e-02 1.451218329297600e-01 2.920887675911867e-02
2.263869776724690e-02 9.171221584226112e-02 3.543719318478172e-02
-1.755179966462553e-02 8.613350058774000e-02 4.957499414362898e-04
-3.998483025313825e-02 1.365945324196069e-01 -7.424323069915644e-04
2.740133143299193e-02 2.788282543179149e-02 4.293876865926146e-02
2.148766044246666e-03 2.104907371025280e-02 2.005915990343255e-03
1.508593114371323e-02 2.628343513815025e-01 4.485039205531048e-02
2.344600716138900e-02 1.735876984757141e-01 5.333440222533493e-02
-2.495200625652596e-02 1.652065089201515e-01 2.570552315621583e-04
-4.711973942353231e-02 2.507519446419695e-01 -7.461370965519045e-03
3.471822794375933e-02 8.393817245911592e-02 6.229568252113104e-02
-4.233682788818556e-03 7.656860350689590e-02 7.110063345108437e-03
3.846344661603468e-03 3.807008362717248e-01 5.175621500119638e-02
1.800674646817612e-02 2.611118116188239e-01 6.420534284208941e-02
-3.208986036281015e-02 2.478411025656558e-01 -2.380129145138590e-03
-5.904895208195571e-02 3.720844923771185e-01 -1.583192464233335e-02
3.123549878437137e-02 1.530220961422815e-01 7.165758524413879e-02
-1.010737856834035e-02 1.446741421555333e-01 9.704724748593548e-03
3.258291516256658e-01 1.847481467950184e-01 -4.531719308927275e-02
1.643439957334938e-01 1.175066015382067e-01 -2.074233351461335e-02
1.267758269063526e-01 9.866433865463659e-02 -2.916088647208357e-02
2.426409225213116e-01 1.455284323004846e-01 -4.951257916467637e-02
3.205809036845689e-01 3.053352717269985e-01 1.006718301456977e-02
8.300934311029337e-02 2.074891931447450e-01 -3.932176250261571e-04
6.772046054632902e-02 1.715938344288678e-01 -7.018703629369506e-03
2.259863892618989e-01 2.450467981275183e-01 -7.517377417225453e-03
2.439934536019807e-01 1.601574189300950e-01 -3.286242102240881e-02
1.475530169719094e-01 1.063481210724257e-01 -2.634450039487980e-02
1.822720608841712e-01 1.283049816754350e-01 -3.997706846024214e-02
2.861038985636791e-01 1.616589704201838e-01 -4.904652824930965e-02
3.194184594783501e-01 2.471526766815182e-01 -1.912982552124384e-02
1.234735483843534e-01 1.621498128650151e-01 -1.008873784531186e-02
9.629369141676292e-02 1.352362107959251e-01 -1.689991713162736e-02
2.347815082367402e-01 1.949350174996094e-01 -2.881781906481146e-02
1.993529859148832e-01 2.676358989066465e-01 6.801817931598547e-03
7.689714259540081e-02 1.879913244487039e-01 -6.297304919719278e-03
1.402065300588855e-01 2.182097053749082e-01 -4.307618938963159e-03
2.653373663419993e-01 2.741847245767794e-01 -2.207101006276576e-03
4.724228790292211e-02 2.923599990706319e-02 -6.810724211919396e-04
4.312741437543521e-02 3.106490823260407e-02 -1.074594167546591e-02
-1.375102345009126e-02 5.558818288623162e-02 -9.589960295453885e-03
-1.013237278352197e-02 5.436032680742407e-02 -6.277725282488172e-03
9.609244284322503e-02 7.061533772660847e-02 -8.952377846090494e-03
4.827870270500748e-02 3.207919661857603e-02 -7.823491844832626e-03
8.007825306937928e-02 6.415290287010182e-02 -1.917207987512975e-02
1.584403645456716e-02 3.969764395010259e-02 -5.783479152603280e-03
1.601516274866389e-02 3.988806491217903e-02 -8.205093958405858e-03
1.369423532262907e-02 1.285495810175985e-01 -5.337737213653160e-03
-1.130081998196515e-02 5.718891661469835e-02 -5.996862730140293e-03
1.551189559056671e-02 1.135628559884325e-01 -8.661676819469945e-03
0.000000000000000e+00 0.000000000000000e+00 0.000000000000000e+00
0.000000000000000e+00 0.000000000000000e+00 0.000000000000000e+00
0.000000000000000e+00 0.000000000000000e+00 0.000000000000000e+00
0.000000000000000e+00 0.000000000000000e+00 0.000000000000000e+00
1.730417554685147e-02 5.779916182293834e-03 3.147745300124448e-03
0.000000000000000e+00 0.000000000000000e+00 0.000000000000000e+00
1.752596976014695e-02 9.065019496857462e-03 -4.968650127182539e-03
0.000000000000000e+00 0.000000000000000e+00 0.000000000000000e+00
0.000000000000000e+00 0.000000000000000e+00 0.000000000000000e+00
-1.206641615360811e-02 1.088928696569524e-02 -6.633557051118992e-03
0.000000000000000e+00 0.000000000000000e+00 0.000000000000000e+00
-1.042509631958291e-02 1.386493252771845e-02 -3.938300552513775e-03
9.157511167210969e-02 7.635365805081870e-02 -2.939813403266466e-02
1.799488624939476e-01 1.098246559576654e-01 -5.103899790997535e-02
4.851639293212957e-02 1.332374429708941e-01 -5.170540051061118e-03
1.706576111194026e-01 1.859466496396168e-01 -2.233704591464591e-02
1.082368975973250e-01 8.880021403217685e-02 -2.940504443206102e-02
1.339408950840734e-01 9.793101344778819e-02 -3.942841434616971e-02
2.075538746423779e-01 1.288173115400104e-01 -5.054907057025049e-02
6.979422010707730e-02 1.044934279567316e-01 -1.747235971290292e-02
1.749816308599985e-01 1.475363564345424e-01 -3.702244235321558e-02
5.808241900400921e-02 1.543405689855022e-01 -6.242049087771324e-03
1.042702932540730e-01 1.678142873728804e-01 -8.782678123605607e-03
1.951931515818524e-01 2.147737347313851e-01 -1.465685564382367e-02
3.183885840675807e-02 2.741924354582601e-02 -1.313610092728586e-02
-7.701611905097495e-03 4.669082329310867e-02 -4.124924904957295e-03
3.752176385741088e-02 3.030738531545898e-02 -1.183096123858866e-02
5.756673890024878e-02 5.199949390205742e-02 -2.077414157888326e-02
1.172896865831268e-02 3.549385180472448e-02 -8.479957213901752e-03
-8.362068550210254e-03 5.129532947637228e-02 -6.426757555118812e-03
1.066925991032682e-02 8.919353414938752e-02 -5.063130444960205e-03
0.000000000000000e+00 0.000000000000000e+00 0.000000000000000e+00
0.000000000000000e+00 0.000000000000000e+00 0.000000000000000e+00
0.000000000000000e+00 0.000000000000000e+00 0.000000000000000e+00
1.373499217000318e-02 9.185626942853735e-03 -6.061326716711217e-03
0.000000000000000e+00 0.000000000000000e+00 0.000000000000000e+00
0.000000000000000e+00 0.000000000000000e+00 0.000000000000000e+00
-9.486403548231036e-03 1.400622075779676e-02 -2.333640624346578e-03
6.569490453073830e-02 4.287534923929442e-02 -3.220751289081372e-02
1.401024393578824e-01 6.898175003318618e-02 -5.324532182691889e-02
3.106547069411830e-02 9.175378307728951e-02 -5.481936125825950e-03
1.326462395348447e-01 1.354946339505889e-01 -2.817332370917602e-02
7.790186683718425e-02 6.143756459390732e-02 -3.025626266577241e-02
1.004530517977545e-01 5.948913421962761e-02 -4.147457337998169e-02
1.584306150016304e-01 8.971708349202250e-02 -5.181688182947474e-02
4.799152050530427e-02 6.714089896422465e-02 -1.855376981198169e-02
1.364273459632020e-01 1.021485024985292e-01 -4.073633059520018e-02
4.103433431443803e-02 1.119767118885448e-01 -5.408659252310162e-03
7.635971066478509e-02 1.199135080375802e-01 -1.349575040888743e-02
1.503891152065186e-01 1.588513992782287e-01 -2.622704801921865e-02
2.079363112861081e-02 8.523433755377050e-03 -1.724600676092021e-02
-7.350177781936923e-03 2.228831282174564e-02 4.113274757533602e-04
2.526218997379380e-02 2.106850303996377e-02 -1.468998901236459e-02
3.952915259579184e-02 2.466964393869595e-02 -2.498401580506624e-02
6.441938335496059e-03 1.419039298976357e-02 -8.430951117015374e-03
-7.355491545371694e-03 3.748676520277162e-02 -1.640085094520884e-03
3.142216312386112e-03 5.578642182556914e-02 -1.820395588902032e-03
0.000000000000000e+00 0.000000000000000e+00 0.000000000000000e+00
0.000000000000000e+00 0.000000000000000e+00 0.000000000000000e+00
0.000000000000000e+00 0.000000000000000e+00 0.000000000000000e+00
8.595576774257312e-03 1.255200757765042e-03 -9.787989707005560e-03
0.000000000000000e+00 0.000000000000000e+00 0.000000000000000e+00
0.000000000000000e+00 0.000000000000000e+00 0.000000000000000e+00
-4.282573497667664e-03 5.433966354078296e-03 1.717070846486575e-03
0.000000000000000e+00 0.000000000000000e+00 0.000000000000000e+00
0.000000000000000e+00 0.000000000000000e+00 0.000000000000000e+00
0.000000000000000e+00 0.000000000000000e+00 0.000000000000000e+00
0.000000000000000e+00 0.000000000000000e+00 0.000000000000000e+00
1.924025594772423e-02 6.385214051021260e-02 1.120508937242226e-02
2.968048683727719e-02 6.093728722251117e-02 1.913135655524004e-02
-2.762408146217618e-02 5.437341894746008e-02 9.018921092351887e-03
-4.580448556996679e-02 5.696004613288122e-02 1.456922141883239e-02
0.000000000000000e+00 0.000000000000000e+00 0.000000000000000e+00
0.000000000000000e+00 0.000000000000000e+00 0.000000000000000e+00
0.000000000000000e+00 0.000000000000000e+00 0.000000000000000e+00
0.000000000000000e+00 0.000000000000000e+00 0.000000000000000e+00
1.156993190099015e-02 1.579245106056528e-02 1.176413105947892e-03
1.660063541882429e-02 1.902197114482753e-02 7.030037583424791e-03
-1.408909737364077e-02 1.611921255583570e-02 2.230556073089004e-03
-2.252799431863995e-02 1.523939609068040e-02 9.207070753373124e-03
2.599785837889367e-02 6.580092125901450e-02 1.505017510086359e-02
1.074794260349872e-03 5.597692227463719e-02 1.455397772650989e-02
-3.747807037638797e-02 5.869178759366240e-02 1.058869993373388e-02
-1.310755200852862e-02 5.848625922311026e-02 1.294585912427515e-02
0.000000000000000e+00 0.000000000000000e+00 0.000000000000000e+00
0.000000000000000e+00 0.000000000000000e+00 0.000000000000000e+00
4.267604820759207e-02 3.853129074201968e-02 2.886044838406689e-02
-5.877168785309969e-03 3.099266530889518e-02 7.563878904599397e-03
0.000000000000000e+00 0.000000000000000e+00 0.000000000000000e+00
0.000000000000000e+00 0.000000000000000e+00 0.000000000000000e+00
0.000000000000000e+00 0.000000000000000e+00 0.000000000000000e+00
2.166889635891813e-02 9.429296534369811e-03 1.452970524248887e-02
-1.419272871033091e-03 4.633868459566005e-03 8.694685959233545e-04
3.327534957278606e-02 5.224235862687775e-02 2.291596115314361e-02
1.870307723382447e-02 3.335123225480359e-02 1.846440404313135e-02
-1.739983961909940e-02 4.397771393359811e-02 7.777346340867989e-03
1.742009635757992e-02 2.263073261783647e-01 3.946773327271096e-02
3.693741734456641e-02 2.017347447940527e-01 4.877367397960354e-02
-5.782601113632371e-02 1.864556674677408e-01 2.897927344355836e-02
-8.898994953651393e-02 2.077855540761925e-01 2.595998626947949e-02
2.134355477410410e-02 1.363856812674358e-01 2.506766434737560e-02
3.637909394793527e-02 1.232200171089423e-01 3.373467791850883e-02
-4.123471470708494e-02 1.122297522031438e-01 1.921486380230092e-02
-6.830416714440085e-02 1.236262028983952e-01 2.047120961227665e-02
2.879290082523545e-02 2.163771027032373e-01 4.426945716410494e-02
-1.109141866143225e-02 1.933427329343217e-01 3.813806752254771e-02
-7.394898949325904e-02 1.986748235070064e-01 2.749618542122163e-02
-3.515323080473912e-02 2.165806381973395e-01 3.312548405166432e-02
5.925010746394346e-02 1.631603140471712e-01 5.808672649211900e-02
-3.173323053345228e-02 1.482035989077778e-01 2.753561061506170e-02
5.573297700201458e-02 9.189143518847051e-02 4.433903063359820e-02
-1.612801608200731e-02 8.015322617148606e-02 1.687487428777937e-02
4.576611247488242e-02 1.839342308418273e-01 5.338889816134115e-02
1.427882599717259e-02 1.552739825009337e-01 4.291799994721660e-02
-4.529131972843441e-02 1.695183643607541e-01 2.841453721606715e-02
-1.289893251902846e-03 4.401148385963817e-01 6.401967620136537e-02
1.955770231810386e-02 3.900120615577937e-01 7.183363603728113e-02
-9.748240244515644e-02 3.678974813690054e-01 3.932171535349871e-02
-1.288523872706280e-01 4.125276087740413e-01 3.402330026575384e-02
1.002827749323124e-02 3.282322243733977e-01 5.291260668771878e-02
3.064761525443675e-02 2.920509722490129e-01 6.140334222101206e-02
-7.613507364329164e-02 2.727371883091516e-01 3.653783295255352e-02
-1.085266650618385e-01 3.057219477854534e-01 3.164191611152899e-02
9.516734426257709e-03 4.154264380934378e-01 6.844707333242453e-02
-3.928461512736124e-02 3.784208879434351e-01 5.526558642024257e-02
-1.107971658792185e-01 3.912504271028549e-01 3.796668885377230e-02
-6.601357230218376e-02 4.258653963302090e-01 4.846460716046747e-02
4.320846799976220e-02 3.368356737339066e-01 7.883669503621621e-02
-6.767562998581844e-02 3.166156838447848e-01 4.258053696205670e-02
5.386913104483738e-02 2.461489945178808e-01 6.980277289038912e-02
-4.933593456551162e-02 2.279854361627110e-01 3.532894969999712e-02
2.999936608372699e-02 3.638555661155802e-01 7.522689618166679e-02
-1.182470439085063e-02 3.265396879935761e-01 6.088654804901596e-02
-8.343650940606762e-02 3.429422641648267e-01 4.030136738699251e-02
-4.097069594273030e-02 6.725929168225180e-01 7.673353002960999e-02
-1.510926512276223e-02 5.957585279235177e-01 8.469504996503545e-02
-1.374741721620967e-01 5.715589873371190e-01 4.250778305510668e-02
-1.769957835378663e-01 6.530916889807140e-01 2.487144196926502e-02
-1.972274634093156e-02 5.572029420402285e-01 7.207337392455165e-02
3.465114667924984e-03 4.923939604203723e-01 7.978401167664581e-02
-1.184950974069366e-01 4.681578260013033e-01 4.059671213877000e-02
-1.505564537453764e-01 5.322256746602264e-01 3.067275404038127e-02
-2.713258627841128e-02 6.337999525548634e-01 8.143950252945895e-02
-7.612582145919243e-02 5.838488563540276e-01 6.360596534169016e-02
-1.571934889441698e-01 6.083600354788895e-01 3.513738890167767e-02
-1.081770696433226e-01 6.616310031594093e-01 5.219319727388951e-02
1.246003559611632e-02 5.311951153784450e-01 9.201730170459339e-02
-1.052434897660087e-01 5.088320005695923e-01 5.186848502643569e-02
2.876799404586314e-02 4.329274410155425e-01 8.621150193000533e-02
-8.651043861773131e-02 4.114015689796747e-01 4.758440935311177e-02
-2.057629107859477e-03 5.622065095321827e-01 8.820013980827554e-02
-4.645270025194320e-02 5.198529872712310e-01 7.190059440930538e-02
-1.203260253726313e-01 5.394151317437085e-01 4.802398416198989e-02
3.316530387283672e-01 1.911861140407198e-01 -4.500253440631846e-02
1.658542843289450e-01 1.234272797175553e-01 -1.984422799837611e-02
1.288777504942882e-01 1.024088191118051e-01 -2.919163481139680e-02
2.475295517792151e-01 1.508322209951673e-01 -5.054455882488210e-02
3.256801220384314e-01 3.133128053250724e-01 8.775446220896488e-03
8.270593581141696e-02 2.156299043203394e-01 2.250165241059989e-03
6.940636088266258e-02 1.764179032752271e-01 -7.798769064114402e-03
2.306175352259713e-01 2.525568801555064e-01 -7.514763104422393e-03
2.486105260235218e-01 1.660772388351978e-01 -3.315838937584593e-02
1.504868757354534e-01 1.103209441674876e-01 -2.678953482803074e-02
1.858822356226117e-01 1.330693662442450e-01 -4.082731245630160e-02
2.898934523929402e-01 1.685155760043079e-01 -4.859026400598907e-02
3.228111171348066e-01 2.533880530302858e-01 -1.994167818127381e-02
1.261959993135038e-01 1.671016981736522e-01 -1.043014620184840e-02
9.838023602857447e-02 1.392807813296784e-01 -1.756679233215904e-02
2.384926327340606e-01 2.008670128086547e-01 -2.981886603490665e-02
2.020927986337430e-01 2.749338772876988e-01 7.185829303957253e-03
7.803874661782792e-02 1.938882601497947e-01 -6.118697511386238e-03
1.423532444292299e-01 2.248299513759494e-01 -3.443239180198768e-03
2.685374730083029e-01 2.828425774203708e-01 -9.889613795891553e-04
1.928729525706626e-01 1.984542199047894e-01 -1.978251563718568e-02
2.188178951960156e-01 1.460938725217703e-01 -3.910611592393204e-02
1.695710062303999e-01 2.479520470237223e-01 -2.567051367870674e-03
2.794530491829293e-01 2.252090899271331e-01 -2.705988286619956e-02
1.134583429171068e-01 1.520483585993211e-01 -1.547577642962750e-02
2.228678178956394e-01 2.213297400953503e-01 -1.328504180640394e-02
1.639535949795765e-01 1.784439727238917e-01 -2.196771499536512e-02
4.905681924089960e-02 3.098046098765938e-02 -1.161191362002754e-03
4.437353781581883e-02 3.212203387829491e-02 -1.085775154586447e-02
-1.478087111970752e-02 5.847849161977410e-02 -8.632611660218382e-03
-1.133751191673234e-02 5.635317638395437e-02 -5.417237430745087e-03
9.803015315873856e-02 7.492185496931264e-02 -8.794520602086511e-03
4.945097305806515e-02 3.297562840499496e-02 -7.767958502897239e-03
8.131159192067434e-02 6.713266164804677e-02 -1.936987462299348e-02
1.676486329385672e-02 4.302945711934125e-02 -5.712678516624633e-03
1.643949753577654e-02 4.263829262121720e-02 -8.527508373740922e-03
1.546399454713996e-02 1.328550048906626e-01 -5.634571072914019e-03
-1.183996514140379e-02 5.937135253473075e-02 -6.932309858166940e-03
1.600802795692500e-02 1.171461695798042e-01 -8.780726559093002e-03
5.335710646719625e-02 9.665086572673856e-02 -1.103099351173754e-02
9.285225522132462e-02 7.059666165859457e-02 -1.595727272957100e-02
1.550257840556488e-02 1.255219160734695e-01 -6.034235521022533e-03
1.821888371384873e-02 4.438586096075930e-02 -7.064874122301031e-03
5.554975609920517e-02 1.023920728102192e-01 -7.430332210144970e-03
4.791121483181433e-02 9.058852435996281e-02 -1.322916326368991e-02
0.000000000000000e+00 0.000000000000000e+00 0.000000000000000e+00
0.000000000000000e+00 0.000000000000000e+00 0.000000000000000e+00
0.000000000000000e+00 0.000000000000000e+00 0.000000000000000e+00
0.000000000000000e+00 0.000000000000000e+00 0.000000000000000e+00
1.861207875059871e-02 6.490570996208401e-03 3.656623096553221e-03
0.000000000000000e+00 0.000000000000000e+00 0.000000000000000e+00