<?xml version="1.0" ?> 
<!-- 
# vtk DataFile Version 3.0
-->
<VTKFile type="UnstructuredGrid" version="0.1" compressor="vtkZLibDataCompressor" byte_order="LittleEndian">
  <UnstructuredGrid>
    <FieldData>
      <DataArray type="Float64" Name="TIME" NumberOfTuples="1" format="ascii">
3.000000000000000e+00 
      </DataArray>
    </FieldData>

    <Piece NumberOfPoints="144" NumberOfCells="0" >
      <Points>
        <DataArray type="Float64" NumberOfComponents="3" format="ascii">
9.973911591788898e-01 7.070227589081610e-02 1.734723475976807e-18
8.653318377871235e-01 4.995995694850023e-01 4.527195285533925e-01
8.653318377871235e-01 4.995995694850022e-01 4.527195285533924e-01
8.408869671830003e-01 5.400341474920286e-01 5.000000000000000e-01
8.408869671830003e-01 5.400341474920286e-01 5.000000000000000e-01
7.071067811870000e-01 7.071067811870000e-01 7.146018366030000e-01
7.071067811870000e-01 7.071067811870000e-01 7.146018366030000e-01
4.995995694841946e-01 8.653318377857246e-01 9.764841446522946e-01
4.995995694841946e-01 8.653318377857246e-01 9.764841446522946e-01
4.790734834772050e-01 8.767844645519829e-01 1.000000000000000e+00
4.790734834772048e-01 8.767844645519829e-01 1.000000000000000e+00
0.000000000000000e+00 1.000000000000000e+00 1.500000000000000e+00
1.000000000000000e-01 3.000000000000000e-01 2.500000000000000e+00
4.999999999999999e-01 3.000000000000000e-01 2.709523809523774e+00
4.999999999999999e-01 3.000000000000000e-01 2.709523809523774e+00
9.999999999999997e-01 3.000000000000000e-01 2.971428571428627e+00
1.054545454545373e+00 3.000000000000000e-01 3.000000000000000e+00
1.150000000000000e+00 3.000000000000000e-01 3.050000000000000e+00
9.999999999999997e-01 3.000000000000000e-01 2.971428571428627e+00
1.054545454545372e+00 3.000000000000000e-01 3.000000000000000e+00
1.150000000000000e+00 3.000000000000000e-01 3.050000000000000e+00
1.500000000000000e+00 3.000000000000000e-01 3.233333333333286e+00
1.500000000000000e+00 2.999999999999999e-01 3.233333333333286e+00
2.000000000000000e+00 3.000000000000000e-01 3.495238095238156e+00
9.973911591791951e-01 7.070227588610377e-02 5.000000000000000e+00
8.653318377868586e-01 4.995995694848514e-01 5.452719528552424e+00
8.653318377868584e-01 4.995995694848515e-01 5.452719528552424e+00
8.408869671819502e-01 5.400341474932241e-01 5.500000000000000e+00
8.408869671819506e-01 5.400341474932233e-01 5.500000000000000e+00
7.071067811870000e-01 7.071067811870000e-01 5.714601836600000e+00
7.071067811870000e-01 7.071067811870000e-01 5.714601836600000e+00
4.995995694842540e-01 8.653318377858240e-01 5.976484144650065e+00
4.995995694842541e-01 8.653318377858241e-01 5.976484144650065e+00
4.790734834754157e-01 8.767844645530971e-01 6.000000000000000e+00
4.790734834754157e-01 8.767844645530969e-01 5.999999999999999e+00
0.000000000000000e+00 1.000000000000000e+00 6.500000000000000e+00
1.000000000000000e-01 3.000000000000000e-01 7.500000000000000e+00
4.999999999999999e-01 3.000000000000000e-01 7.709523809523774e+00
5.000000000000000e-01 3.000000000000000e-01 7.709523809523774e+00
1.000000000000000e+00 3.000000000000000e-01 7.971428571428627e+00
1.054545454545370e+00 3.000000000000000e-01 7.999999999999999e+00
1.150000000000000e+00 3.000000000000000e-01 8.050000000000001e+00
9.999999999999996e-01 3.000000000000000e-01 7.971428571428627e+00
1.054545454545370e+00 3.000000000000000e-01 7.999999999999999e+00
1.150000000000000e+00 3.000000000000000e-01 8.050000000000001e+00
1.500000000000000e+00 3.000000000000000e-01 8.233333333333286e+00
1.500000000000000e+00 3.000000000000000e-01 8.233333333333286e+00
2.000000000000000e+00 3.000000000000000e-01 8.495238095238156e+00
9.973911591791951e-01 7.070227588610380e-02 1.000000000000000e+01
8.653318377868586e-01 4.995995694848514e-01 1.045271952855243e+01
8.653318377868585e-01 4.995995694848514e-01 1.045271952855242e+01
8.408869671819499e-01 5.400341474932244e-01 1.050000000000000e+01
8.408869671819501e-01 5.400341474932240e-01 1.050000000000000e+01
7.071067811870000e-01 7.071067811870000e-01 1.071460183660000e+01
7.071067811870000e-01 7.071067811870000e-01 1.071460183660000e+01
4.995995694842541e-01 8.653318377858241e-01 1.097648414465006e+01
4.995995694842541e-01 8.653318377858241e-01 1.097648414465006e+01
4.790734834754157e-01 8.767844645530970e-01 1.100000000000000e+01
4.790734834754144e-01 8.767844645530978e-01 1.100000000000000e+01
0.000000000000000e+00 1.000000000000000e+00 1.150000000000000e+01
1.000000000000000e-01 3.000000000000000e-01 1.250000000000000e+01
4.999999999999999e-01 3.000000000000000e-01 1.270952380952378e+01
4.999999999999999e-01 3.000000000000000e-01 1.270952380952378e+01
9.999999999999999e-01 3.000000000000000e-01 1.297142857142863e+01
1.054545454545370e+00 3.000000000000000e-01 1.300000000000000e+01
1.150000000000000e+00 3.000000000000000e-01 1.305000000000000e+01
1.000000000000000e+00 3.000000000000000e-01 1.297142857142863e+01
1.054545454545363e+00 2.999999999999999e-01 1.299999999999999e+01
1.150000000000000e+00 3.000000000000000e-01 1.305000000000000e+01
1.500000000000000e+00 3.000000000000000e-01 1.323333333333329e+01
1.500000000000000e+00 3.000000000000000e-01 1.323333333333329e+01
2.000000000000000e+00 3.000000000000000e-01 1.349523809523816e+01
9.099253964686810e-01 4.123445562477631e-01 1.535465891035190e+01
8.072068738973140e-01 5.895903953275775e-01 1.555997156345694e+01
7.282908569028873e-01 6.852364697703509e-01 1.568414605091970e+01
7.071067811870000e-01 7.071067811870000e-01 1.571460183660000e+01
8.072068738973139e-01 5.895903953275780e-01 1.555997156345694e+01
7.282908569028872e-01 6.852364697703509e-01 1.568414605091970e+01
9.974169025693937e-01 7.035175387221296e-02 1.499964828143268e+01
9.099253964686809e-01 4.123445562477634e-01 1.535465891035190e+01
2.540633997442249e-01 9.663749324558524e-01 1.624282984380450e+01
0.000000000000000e+00 1.000000000000000e+00 1.650000000000000e+01
7.071067811870000e-01 7.071067811870000e-01 1.571460183660000e+01
5.836698286482834e-01 8.114624093944559e-01 1.587652933040514e+01
5.836698286482851e-01 8.114624093944550e-01 1.587652933040514e+01
4.573855792697502e-01 8.882244714677371e-01 1.602452973237035e+01
4.573855792697501e-01 8.882244714677371e-01 1.602452973237035e+01
2.540633997442271e-01 9.663749324558519e-01 1.624282984380450e+01
6.456898118068776e-01 3.000000000000000e-01 1.778583752047027e+01
8.155693453509683e-01 3.000000000000000e-01 1.787482203804104e+01
4.285291040100551e-01 3.000000000000000e-01 1.767208667352903e+01
6.456898118068786e-01 3.000000000000000e-01 1.778583752047028e+01
1.000000000000000e-01 3.000000000000000e-01 1.750000000000000e+01
4.285291040100564e-01 3.000000000000000e-01 1.767208667352903e+01
1.053627568438921e+00 3.000000000000000e-01 1.799951920251567e+01
1.150000000000000e+00 3.000000000000000e-01 1.805000000000000e+01
8.155693453509688e-01 3.000000000000000e-01 1.787482203804104e+01
1.053627568438920e+00 3.000000000000000e-01 1.799951920251567e+01
1.312800678365587e+00 2.999999999999999e-01 1.813527654581049e+01
1.590794601595392e+00 3.000000000000000e-01 1.828089241035947e+01
1.590794601595394e+00 2.999999999999999e-01 1.828089241035947e+01
1.995978191111754e+00 3.000000000000000e-01 1.849313143343955e+01
1.995978191111753e+00 3.000000000000000e-01 1.849313143343955e+01
2.000000000000000e+00 3.000000000000000e-01 1.849523809523816e+01
1.150000000000000e+00 3.000000000000000e-01 1.805000000000000e+01
1.204849796232627e+00 3.000000000000000e-01 1.807873084564564e+01
1.204849796232627e+00 3.000000000000000e-01 1.807873084564563e+01
1.312800678365586e+00 3.000000000000000e-01 1.813527654581049e+01
9.099485189372152e-01 4.122934081581782e-01 2.035460276540420e+01
8.076045172945490e-01 5.890410240244062e-01 2.055929282701539e+01
7.282909319600672e-01 6.852363897773420e-01 2.068414594118266e+01
7.071067811870000e-01 7.071067811870000e-01 2.071460183660000e+01
8.076045172945480e-01 5.890410240244077e-01 2.055929282701539e+01
7.282909319600673e-01 6.852363897773419e-01 2.068414594118266e+01
9.973911599562510e-01 7.070226533250656e-02 1.999999998940044e+01
9.099485189372151e-01 4.122934081581787e-01 2.035460276540421e+01
2.527774973574919e-01 9.667165115395006e-01 2.124416100680999e+01
0.000000000000000e+00 1.000000000000000e+00 2.150000000000000e+01
7.071067811870000e-01 7.071067811870000e-01 2.071460183660000e+01
5.837475137366747e-01 8.114069955678970e-01 2.087643382987411e+01
5.837475137366727e-01 8.114069955678983e-01 2.087643382987412e+01
4.573869885829552e-01 8.882237495531340e-01 2.102452814839284e+01
4.573869885829553e-01 8.882237495531340e-01 2.102452814839284e+01
2.527774973574926e-01 9.667165115395002e-01 2.124416100680999e+01
6.456898117728429e-01 3.000000000000000e-01 2.278583752045245e+01
8.155693453656027e-01 3.000000000000000e-01 2.287482203804870e+01
4.285291039950259e-01 3.000000000000000e-01 2.267208667352115e+01
6.456898117728418e-01 2.999999999999999e-01 2.278583752045245e+01
1.000000000000000e-01 3.000000000000000e-01 2.250000000000000e+01
4.285291039950233e-01 3.000000000000000e-01 2.267208667352115e+01
1.053627568438919e+00 3.000000000000000e-01 2.299951920251566e+01
1.150000000000000e+00 3.000000000000000e-01 2.305000000000000e+01
8.155693453656017e-01 2.999999999999999e-01 2.287482203804870e+01
1.053627568438926e+00 3.000000000000000e-01 2.299951920251567e+01
1.312800678387915e+00 3.000000000000000e-01 2.313527654582219e+01
1.590794601608110e+00 3.000000000000000e-01 2.328089241036613e+01
1.590794601608110e+00 3.000000000000000e-01 2.328089241036613e+01
1.995978191109075e+00 3.000000000000000e-01 2.349313143343815e+01
1.995978191109071e+00 2.999999999999999e-01 2.349313143343814e+01
2.000000000000000e+00 3.000000000000000e-01 2.349523809523816e+01
1.150000000000000e+00 3.000000000000000e-01 2.305000000000000e+01
1.204849796220207e+00 2.999999999999999e-01 2.307873084563913e+01
1.204849796220206e+00 3.000000000000000e-01 2.307873084563913e+01
1.312800678387914e+00 3.000000000000000e-01 2.313527654582218e+01
        </DataArray>
      </Points>

      <Cells>
        <DataArray type="Int32" Name="connectivity" format="ascii">
0 1 2 3 4 5 6 7 8 9 10 11 12 13 14 15 16 17 18 19 20 21 22 23 24 25 26 27 28 29 30 31 32 33 34 35 36 37 38 39 40 41 42 43 44 45 46 47 48 49 50 51 52 53 54 55 56 57 58 59 60 61 62 63 64 65 66 67 68 69 70 71 72 73 74 75 76 77 78 79 80 81 82 83 84 85 86 87 88 89 90 91 92 93 94 95 96 97 98 99 100 101 102 103 104 105 106 107 108 109 110 111 112 113 114 115 116 117 118 119 120 121 122 123 124 125 126 127 128 129 130 131 132 133 134 135 136 137 138 139 140 141 142 143 
        </DataArray>
        <DataArray type="Int32" Name="offsets" format="ascii">

        </DataArray>
        <DataArray type="UInt8" Name="types" format="ascii">

        </DataArray>
      </Cells>

  <PointData>
        <DataArray type="Float64" Name="displacement" NumberOfComponents="3" format="ascii">
2.820101733292564e-01 2.788117980231420e-01 2.186110543037009e-02
4.179496394941706e-02 1.361971614331317e-01 -4.273577622898983e-03
4.179496394941706e-02 1.361971614331317e-01 -4.273577622898983e-03
2.893260815611431e-02 1.230719906452594e-01 -5.409917701147182e-03
2.893260815611431e-02 1.230719906452594e-01 -5.409917701147182e-03
-8.420017549316761e-03 6.886963319081629e-02 -7.826177505213527e-03
-8.420017549316761e-03 6.886963319081629e-02 -7.826177505213527e-03
-2.294398197052611e-02 1.931398043484278e-02 -7.557180220190141e-03
-2.294398197052611e-02 1.931398043484278e-02 -7.557180220190141e-03
-2.313282271927308e-02 1.600857632463104e-02 -7.437971947138244e-03
-2.313282271927308e-02 1.600857632463104e-02 -7.437971947138022e-03
0.000000000000000e+00 0.000000000000000e+00 0.000000000000000e+00
0.000000000000000e+00 0.000000000000000e+00 0.000000000000000e+00
-8.373832241246992e-03 2.907689490052040e-02 -2.593378824689019e-04
-8.373832241246992e-03 2.907689490052046e-02 -2.593378824689019e-04
-3.616914617771128e-02 1.485091153644151e-01 1.321896890127405e-05
-4.065223687528419e-02 1.672653624623171e-01 -5.020124047483421e-04
-4.927666127151031e-02 2.028457720131762e-01 -1.850223184458155e-03
-3.616914617771128e-02 1.485091153644151e-01 1.321896890127405e-05
-4.065223687528419e-02 1.672653624623168e-01 -5.020124047483421e-04
-4.927666127151031e-02 2.028457720131762e-01 -1.850223184458155e-03
-8.453102119478850e-02 3.546703231899213e-01 -1.315042200330074e-02
-8.453102119478828e-02 3.546703231899212e-01 -1.315042200330074e-02
-1.493255886216169e-01 6.272807060994172e-01 -4.770283319985724e-02
3.443924457215723e-01 3.499363211255965e-01 3.748653102997590e-02
8.031661341471541e-02 1.986719387644106e-01 -1.583767800196867e-03
8.031661341471541e-02 1.986719387644105e-01 -1.583767800196867e-03
6.481366161496172e-02 1.834735973634911e-01 -2.986400620025975e-03
6.481366161496227e-02 1.834735973634916e-01 -2.986400620025087e-03
1.546373793477063e-02 1.183127837491574e-01 -5.804959977325552e-03
1.546373793477063e-02 1.183127837491574e-01 -5.804959977325552e-03
-8.474837854363981e-03 5.436793453092881e-02 -3.879257344227227e-03
-8.474837854363981e-03 5.436793453092870e-02 -3.879257344226339e-03
-9.165002539016864e-03 4.973817576390938e-02 -3.528807770183384e-03
-9.165002539016809e-03 4.973817576390960e-02 -3.528807770183384e-03
0.000000000000000e+00 0.000000000000000e+00 0.000000000000000e+00
0.000000000000000e+00 0.000000000000000e+00 0.000000000000000e+00
-2.983530889860780e-02 6.834475420803532e-02 1.084007799206255e-02
-2.983530889860792e-02 6.834475420803543e-02 1.084007799206255e-02
-1.146082171754190e-01 2.910410925757913e-01 4.041996216328503e-02
-1.262561677006100e-01 3.209972600732281e-01 4.294842396495024e-02
-1.475210440502686e-01 3.749517215609260e-01 4.647017790937902e-02
-1.146082171754191e-01 2.910410925757910e-01 4.041996216328503e-02
-1.262561677006100e-01 3.209972600732281e-01 4.294842396495202e-02
-1.475210440502686e-01 3.749517215609260e-01 4.647017790937902e-02
-2.347556388264356e-01 5.958161068519620e-01 4.779381349256084e-02
-2.347556388264358e-01 5.958161068519618e-01 4.779381349255907e-02
-3.891366598952231e-01 9.744171508519572e-01 1.761658849473058e-02
3.471200728656738e-01 3.552058164916247e-01 3.711977853891213e-02
8.138003888362932e-02 2.019833402568810e-01 -2.117836961451403e-03
8.138003888362944e-02 2.019833402568810e-01 -2.117836961447850e-03
6.576791592891940e-02 1.866172806522624e-01 -3.487282477623310e-03
6.576791592891973e-02 1.866172806522625e-01 -3.487282477623310e-03
1.596734182122506e-02 1.206782718414006e-01 -6.135264692362696e-03
1.596734182122506e-02 1.206782718414006e-01 -6.135264692362696e-03
-8.365241005303004e-03 5.575294790467511e-02 -4.031927273285163e-03
-8.365241005303004e-03 5.575294790467511e-02 -4.031927273285163e-03
-9.077367444288054e-03 5.104007707636649e-02 -3.667574897717074e-03
-9.077367444288109e-03 5.104007707636615e-02 -3.667574897715298e-03
0.000000000000000e+00 0.000000000000000e+00 0.000000000000000e+00
0.000000000000000e+00 0.000000000000000e+00 0.000000000000000e+00
-3.061874084517185e-02 6.997463508121671e-02 1.060048291549975e-02
-3.061874084517185e-02 6.997463508121671e-02 1.060048291549975e-02
-1.174077490760821e-01 2.973856197446206e-01 4.006520667954838e-02
-1.292992380211611e-01 3.278037726022952e-01 4.258911345001692e-02
-1.509866210245442e-01 3.824670538877706e-01 4.610527407620779e-02
-1.174077490760823e-01 2.973856197446207e-01 4.006520667954661e-02
-1.292992380211594e-01 3.278037726022919e-01 4.258911345001692e-02
-1.509866210245442e-01 3.824670538877706e-01 4.610527407620779e-02
-2.399580412568825e-01 6.057690532929485e-01 4.704047850466964e-02
-2.399580412568825e-01 6.057690532929485e-01 4.704047850466964e-02
-3.973475002973208e-01 9.878297996968057e-01 1.564099712879496e-02
6.468053536310492e-02 1.440429729564617e-01 -1.772416329876236e-03
2.068301536071071e-02 1.148221578810235e-01 -9.947779443939098e-03
3.023563927477046e-03 9.578246970522042e-02 -1.262563733892286e-02
-6.049734771428339e-04 9.085535920801857e-02 -1.294965411351612e-02
2.068301536071060e-02 1.148221578810233e-01 -9.947779443939098e-03
3.023563927477046e-03 9.578246970522064e-02 -1.262563733892286e-02
2.106271090674980e-01 1.959384708264323e-01 1.763475905566381e-02
6.468053536310481e-02 1.440429729564618e-01 -1.772416329878013e-03
-1.634991947229980e-02 -2.516235876719453e-04 -4.700986059649637e-03
0.000000000000000e+00 0.000000000000000e+00 0.000000000000000e+00
-6.049734771428339e-04 9.085535920801857e-02 -1.294965411351612e-02
-1.452140231290289e-02 6.100546999934786e-02 -1.259214089599858e-02
-1.452140231290289e-02 6.100546999934819e-02 -1.259214089599681e-02
-1.965756409986774e-02 3.218340076727411e-02 -1.005260772760508e-02
-1.965756409986780e-02 3.218340076727411e-02 -1.005260772760508e-02
-1.634991947229986e-02 -2.516235876717232e-04 -4.700986059646084e-03
-8.491425173674405e-03 3.220776000078734e-02 2.241461794007193e-03
-1.274987675954597e-02 5.550368760549435e-02 3.773625770950417e-03
-4.230497182658388e-03 1.133581522279098e-02 6.381723384834004e-04
-8.491425173674294e-03 3.220776000078751e-02 2.241461794003641e-03
0.000000000000000e+00 0.000000000000000e+00 0.000000000000000e+00
-4.230497182658388e-03 1.133581522279103e-02 6.381723384834004e-04
-2.022930427342229e-02 9.785439956897785e-02 5.844069224547610e-03
-2.379786825695884e-02 1.180629795679426e-01 6.526369653929720e-03
-1.274987675954597e-02 5.550368760549446e-02 3.773625770950417e-03
-2.022930427342251e-02 9.785439956897768e-02 5.844069224544057e-03
-3.025943396645214e-02 1.563589300870524e-01 6.975328532103475e-03
-4.233056405932056e-02 2.337960135751883e-01 5.312213010757461e-03
-4.233056405932034e-02 2.337960135751890e-01 5.312213010757461e-03
-6.361020676349871e-02 3.716231589576490e-01 -1.395484050874529e-03
-6.361020676349849e-02 3.716231589576487e-01 -1.395484050874529e-03
-6.384981916140764e-02 3.731287651425554e-01 -1.481711771017302e-03
-2.379786825695884e-02 1.180629795679426e-01 6.526369653929720e-03
-2.593781920765936e-02 1.303615210796291e-01 6.806796085058409e-03
-2.593781920765914e-02 1.303615210796289e-01 6.806796085065514e-03
-3.025943396645236e-02 1.563589300870521e-01 6.975328532107028e-03
1.190412018694076e-01 2.333624151312282e-01 1.891396823477720e-03
4.836899578031506e-02 1.673990648531766e-01 -4.880706934592638e-03
2.093187404864627e-02 1.290692141751408e-01 -6.053163636945413e-03
1.572373338431965e-02 1.200150387819532e-01 -6.098778904245705e-03
4.836899578031451e-02 1.673990648531759e-01 -4.880706934592638e-03
2.093187404864627e-02 1.290692141751409e-01 -6.053163636945413e-03
3.423459741722692e-01 3.507268007550607e-01 3.584251280264183e-02
1.190412018694073e-01 2.333624151312280e-01 1.891396823474167e-03
-7.873175321079784e-03 1.346050504169893e-02 5.362262314889676e-05
0.000000000000000e+00 0.000000000000000e+00 0.000000000000000e+00
1.572373338431965e-02 1.200150387819532e-01 -6.098778904245705e-03
-3.166170723463479e-03 7.675278096740112e-02 -5.090265150933249e-03
-3.166170723463591e-03 7.675278096740046e-02 -5.090265150940354e-03
-9.820554330457698e-03 4.526589789382540e-02 -3.014781017217416e-03
-9.820554330457698e-03 4.526589789382540e-02 -3.014781017217416e-03
-7.873175321079839e-03 1.346050504169904e-02 5.362262314534405e-05
-5.182561082512382e-02 1.245526231395651e-01 1.953383620323734e-02
-8.110110264761106e-02 2.015482021868225e-01 3.033934652026105e-02
-2.259034476348859e-02 4.881350273330998e-02 7.250735420303300e-03
-5.182561082512382e-02 1.245526231395647e-01 1.953383620324090e-02
0.000000000000000e+00 0.000000000000000e+00 0.000000000000000e+00
-2.259034476348831e-02 4.881350273330914e-02 7.250735420303300e-03
-1.296121515239916e-01 3.274326505646400e-01 4.343094185932372e-02
-1.512065897848609e-01 3.821619004686601e-01 4.702792868148364e-02
-8.110110264761106e-02 2.015482021868220e-01 3.033934652026105e-02
-1.296121515239931e-01 3.274326505646439e-01 4.343094185932017e-02
-1.901964075112037e-01 4.803405116850292e-01 4.997064924991079e-02
-2.652017597051854e-01 6.680605695294923e-01 4.585675141997925e-02
-2.652017597051854e-01 6.680605695294923e-01 4.585675141997925e-02
-3.954376920868758e-01 9.817954302879026e-01 1.917618699399881e-02
-3.954376920868745e-01 9.817954302878994e-01 1.917618699400236e-02
-3.968637997890683e-01 9.851229086331010e-01 1.878818912537028e-02
-1.512065897848609e-01 3.821619004686601e-01 4.702792868148364e-02
-1.639538908444533e-01 4.142187896544040e-01 4.846057140011339e-02
-1.639538908444531e-01 4.142187896544035e-01 4.846057140010984e-02
-1.901964075112035e-01 4.803405116850284e-01 4.997064924991079e-02
        </DataArray>
        <DataArray type="Float64" Name="projection_direction" NumberOfComponents="3" format="ascii">
2.454591419698282e-04 6.596766004792198e-04 -7.838766733037072e-04
4.294071672373945e-03 4.225828167367274e-03 -5.427660420834202e-04
4.294071672373945e-03 4.225828167367385e-03 -5.427660420833091e-04
-1.053806972664328e-03 -1.240883757647304e-03 -1.787795298588413e-04
-1.053806972664328e-03 -1.240883757647304e-03 -1.787795298588413e-04
-7.000338739650003e-04 -1.035547124208280e-03 1.836225662155133e-04
-7.000338739650003e-04 -1.035547124208280e-03 1.836225662155133e-04
1.532783287985173e-03 3.929866114609881e-03 -6.740906389224310e-05
1.532783287985229e-03 3.929866114609881e-03 -6.740906389257617e-05
-9.170289762391315e-04 -4.424801953316626e-04 2.576424523874632e-04
-9.170289762391315e-04 -4.424801953316626e-04 2.576424523871301e-04
0.000000000000000e+00 0.000000000000000e+00 0.000000000000000e+00
4.334224396809749e-05 7.103770772253215e-04 -1.799293401680835e-04
-2.723986775857168e-04 -3.447346484203251e-03 -4.173084337106836e-04
-2.723986775856613e-04 -3.447346484203251e-03 -4.173084337102395e-04
2.972367708383716e-04 -2.492312690889120e-03 1.337762771354001e-04
-4.102790013016389e-05 1.222928666627654e-05 -3.138281446135593e-05
-3.071469707207619e-04 5.752554517038933e-04 -1.615959273895129e-04
2.972367708383716e-04 -2.492312690889176e-03 1.337762771354001e-04
-4.102790012994184e-05 1.222928666633205e-05 -3.138281446046776e-05
-3.071469707207619e-04 5.752554517038933e-04 -1.615959273895129e-04
3.020318213327045e-04 -7.772677392290372e-04 3.339755023126223e-04
3.020318213329265e-04 -7.772677392288152e-04 3.339755023130664e-04
7.488590200253054e-04 -1.136680672761958e-03 3.368230277143169e-04
-1.239035591772186e-03 -1.569998334787215e-04 1.112704910584128e-04
3.798133104593315e-05 9.834689024823540e-05 -2.310883809482078e-04
3.798133104593315e-05 9.834689024790233e-05 -2.310883809490960e-04
-8.303174314905348e-05 -3.156856255526197e-05 6.899819532968365e-05
-8.303174314927553e-05 -3.156856255537299e-05 6.899819532790730e-05
-6.723451945500614e-05 -3.889449573735160e-05 4.873861770615662e-05
-6.723451945500614e-05 -3.889449573735160e-05 4.873861770615662e-05
-3.944900110963712e-05 6.713298132599022e-05 -2.417016685729578e-05
-3.944900110963712e-05 6.713298132599022e-05 -2.417016685729578e-05
-5.265901367584869e-05 1.453317345823102e-05 3.458379645771004e-05
-5.265901367573766e-05 1.453317345812000e-05 3.458379645859821e-05
0.000000000000000e+00 0.000000000000000e+00 8.881784197001252e-16
-1.531127691493800e-04 -1.283437541486521e-03 -5.796406552116551e-04
5.847091911775903e-05 -2.652973751529064e-04 -9.526199032805494e-05
5.847091911781455e-05 -2.652973751529619e-04 -9.526199032716676e-05
-1.760949187484817e-04 1.732187650105299e-04 -2.166632473610264e-05
2.504475679319107e-04 1.617093512709111e-04 1.443835704417751e-04
-3.728857341056546e-05 -1.162955590826575e-04 -5.911462125318678e-05
-1.760949187479266e-04 1.732187650109740e-04 -2.166632473610264e-05
2.504475679319107e-04 1.617093512709111e-04 1.443835704382224e-04
-3.728857341056546e-05 -1.162955590826575e-04 -5.911462125318678e-05
8.500841568848116e-05 -1.243200665644872e-04 1.498497656022835e-04
8.500841568892525e-05 -1.243200665643762e-04 1.498497656040598e-04
-1.408361363619548e-05 -1.211887601166861e-04 -1.604027864861024e-04
-9.183846900078230e-04 -3.024872195212525e-04 -3.608577554441439e-04
9.300896914887780e-05 1.014035386485146e-04 -2.994916439718054e-04
9.300896914865575e-05 1.014035386482925e-04 -2.994916439718054e-04
3.188191956149389e-05 -4.801656351693939e-05 -4.232899858180872e-06
3.188191956149389e-05 -4.801656351682837e-05 -4.232899854628158e-06
-5.370077943323004e-06 -1.144686567944309e-05 -9.479281821711538e-06
-5.370077943323004e-06 -1.144686567944309e-05 -9.479281821711538e-06
7.192557825497214e-06 8.651285778094042e-05 -2.055764242570035e-05
7.192557825441703e-06 8.651285778082940e-05 -2.055764242570035e-05
5.072712053966200e-05 7.894823132637008e-05 -3.672092566020524e-06
5.072712053971751e-05 7.894823132648110e-05 -3.672092566020524e-06
0.000000000000000e+00 0.000000000000000e+00 0.000000000000000e+00
-1.265048688645076e-04 -1.116808605105102e-03 -4.474716597275830e-04
1.032886176755010e-06 -1.987809354539460e-04 -4.624677279707612e-05
1.032886176921544e-06 -1.987809354541126e-04 -4.624677279885248e-05
-1.338295284656343e-04 8.698645715177200e-06 -3.982710472172357e-05
2.763801439722435e-04 4.790860679904085e-05 1.133383635778529e-04
-1.056776860245412e-04 -8.338812669073103e-05 -1.008663846331359e-04
-1.338295284660784e-04 8.698645715288222e-06 -3.982710471817086e-05
2.763801439721325e-04 4.790860679948494e-05 1.133383635814056e-04
-1.056776860245412e-04 -8.338812669073103e-05 -1.008663846331359e-04
-8.031701408617309e-06 -1.036705578192354e-04 4.461875831118789e-05
-8.031701408839353e-06 -1.036705578190134e-04 4.461875831296425e-05
3.740782316463687e-05 -5.610037667147516e-05 9.340135038726771e-06
2.521815850698439e-03 4.598094463485358e-03 -6.546127209361430e-04
-2.181579555268320e-03 -2.901097211730042e-03 1.873770007314590e-04
4.916705002169230e-03 7.308715248022457e-03 -7.294134275834807e-04
2.361317352871706e-03 3.370908975036890e-03 -2.360667082896839e-04
-2.181579555268542e-03 -2.901097211730153e-03 1.873770007296827e-04
4.916705002169452e-03 7.308715248022235e-03 -7.294134275834807e-04
-2.021138917120746e-03 1.603925254164418e-03 -1.754772046762554e-04
2.521815850698328e-03 4.598094463485247e-03 -6.546127209361430e-04
-1.009261423121660e-03 -1.940451303366619e-03 3.917575067049484e-04
6.546085099337026e-18 0.000000000000000e+00 0.000000000000000e+00
2.361317352871706e-03 3.370908975036890e-03 -2.360667082896839e-04
-2.558309640734446e-03 -3.371619743697596e-03 2.574585426273757e-04
-2.558309640734557e-03 -3.371619743697707e-03 2.574585426255993e-04
3.192291552624960e-03 7.509619380430821e-03 -5.096344591990487e-04
3.192291552625071e-03 7.509619380430821e-03 -5.096344591990487e-04
-1.009261423121716e-03 -1.940451303366730e-03 3.917575067085011e-04
-4.424585242668311e-05 -1.522774946550731e-04 -1.638291860395213e-04
3.388949102898220e-04 -1.470362147746873e-03 2.413948095103535e-04
4.817255651891061e-04 -3.080126523162030e-03 -2.769689932229369e-04
-4.424585242657209e-05 -1.522774946550731e-04 -1.638291860359686e-04
-6.346691680356592e-04 1.256133037533635e-03 1.924160456034940e-04
4.817255651890506e-04 -3.080126523162086e-03 -2.769689932229369e-04
-1.482150221325806e-04 1.045694909499406e-03 -1.058413585077744e-04
-1.488555458271090e-04 -4.794264950445659e-04 6.622158327473926e-06
3.388949102900440e-04 -1.470362147746984e-03 2.413948095103535e-04
-1.482150221323586e-04 1.045694909499462e-03 -1.058413585042217e-04
9.172593428630194e-05 -3.574705743530915e-05 -1.109009544819628e-05
2.217481323230075e-04 -2.129467672084662e-03 3.578372073107516e-04
2.217481323227855e-04 -2.129467672085328e-03 3.578372073107516e-04
5.035140709181984e-04 -2.637385590557706e-03 3.025931407378835e-04
5.035140709184205e-04 -2.637385590557484e-03 3.025931407378835e-04
5.569870398083321e-04 -2.905787588005970e-03 3.143589780663092e-04
-1.488555458271090e-04 -4.794264950445659e-04 6.622158327473926e-06
-4.029611200606631e-05 -2.144388670557162e-03 1.785309002002577e-04
-4.029611200606631e-05 -2.144388670557051e-03 1.785309002002577e-04
9.172593428674602e-05 -3.574705743542017e-05 -1.109009545174899e-05
-1.296309640790305e-04 1.484004583059972e-04 5.144970952031258e-05
-8.828258318827054e-05 -7.796618597066818e-06 -3.568487127125763e-06
-1.206491046070735e-04 7.196254658703438e-05 3.621081930305081e-05
-4.493566159891049e-05 -6.440639955118677e-05 6.685976930498327e-05
-8.828258318827054e-05 -7.796618597177840e-06 -3.568487137783904e-06
-1.206491046071845e-04 7.196254658692336e-05 3.621081930660353e-05
-2.205279082451161e-03 -6.349116313736358e-05 -2.408008233309999e-04
-1.296309640790305e-04 1.484004583059972e-04 5.144970951320715e-05
-1.205448672451370e-04 5.279157358240028e-05 5.422579588554299e-05
1.460937390529315e-18 0.000000000000000e+00 -1.421085471520200e-14
-4.493566159891049e-05 -6.440639955118677e-05 6.685976930498327e-05
6.755283906478837e-06 -8.530481741975127e-05 -2.475752039643453e-05
6.755283906367815e-06 -8.530481741930718e-05 -2.475752039288182e-05
-1.458052455449721e-04 -1.743473412374463e-05 3.645106771799078e-05
-1.458052455450276e-04 -1.743473412396668e-05 3.645106771799078e-05
-1.205448672451648e-04 5.279157358217823e-05 5.422579588909571e-05
-5.045981252949083e-05 -8.588350685057033e-05 -1.254315447773990e-04
-3.439825285123099e-05 -1.435627700905329e-04 -6.542944643328497e-05
-4.740072699288556e-05 -1.071519273120325e-04 -1.174795319869304e-04
-5.045981252915777e-05 -8.588350685068136e-05 -1.254315447773990e-04
6.314026909232107e-06 -1.324556620027395e-03 -4.012271379707499e-04
-4.740072699344067e-05 -1.071519273114219e-04 -1.174795319833777e-04
1.662906525857766e-04 3.330864152306656e-05 7.899967197033675e-05
-6.882614003289600e-05 -1.398206822045278e-04 -1.915217006214220e-04
-3.439825285089793e-05 -1.435627700901998e-04 -6.542944642973225e-05
1.662906525858876e-04 3.330864152251145e-05 7.899967196323132e-05
1.073567520999408e-04 -3.675333107444612e-05 1.032441751327440e-04
-1.181922448927342e-04 -1.392432572465685e-04 5.895127442201442e-05
-1.181922448925121e-04 -1.392432572463465e-04 5.895127442556714e-05