<?xml version="1.0" ?> 
<!-- 
# vtk DataFile Version 3.0
-->
<VTKFile type="UnstructuredGrid" version="0.1" compressor="vtkZLibDataCompressor" byte_order="LittleEndian">
  <UnstructuredGrid>
    <FieldData>
      <DataArray type="Float64" Name="TIME" NumberOfTuples="1" format="ascii">
3.000000000000000e+00 
      </DataArray>
    </FieldData>

    <Piece NumberOfPoints="144" NumberOfCells="0" >
      <Points>
        <DataArray type="Float64" NumberOfComponents="3" format="ascii">
9.973931072023355e-01 7.070273513256668e-02 1.240327285323417e-16
8.653443956098175e-01 4.996068197473151e-01 4.527204716394890e-01
8.653443956098175e-01 4.996068197473150e-01 4.527204716394889e-01
8.408972616915400e-01 5.400395384249512e-01 4.999999999999998e-01
8.408972616915398e-01 5.400395384249513e-01 5.000000000000001e-01
7.071067811870000e-01 7.071067811870000e-01 7.146018366030000e-01
7.071067811870000e-01 7.071067811870000e-01 7.146018366030000e-01
4.996068197465068e-01 8.653443956084172e-01 9.764832015661981e-01
4.996068197465065e-01 8.653443956084172e-01 9.764832015661981e-01
4.790802794582723e-01 8.767986476933665e-01 1.000000000000000e+00
4.790802794582724e-01 8.767986476933666e-01 1.000000000000000e+00
0.000000000000000e+00 1.000000000000000e+00 1.500000000000000e+00
1.000000000000000e-01 3.000000000000000e-01 2.500000000000000e+00
4.999999999999999e-01 3.000000000000000e-01 2.709523809523774e+00
4.999999999999999e-01 3.000000000000000e-01 2.709523809523774e+00
9.999999999999997e-01 3.000000000000000e-01 2.971428571428627e+00
1.054545454545373e+00 3.000000000000000e-01 3.000000000000000e+00
1.150000000000000e+00 3.000000000000000e-01 3.050000000000000e+00
9.999999999999997e-01 3.000000000000000e-01 2.971428571428627e+00
1.054545454545372e+00 3.000000000000000e-01 3.000000000000000e+00
1.150000000000000e+00 3.000000000000000e-01 3.050000000000000e+00
1.500000000000000e+00 3.000000000000000e-01 3.233333333333286e+00
1.500000000000000e+00 2.999999999999999e-01 3.233333333333286e+00
2.000000000000000e+00 3.000000000000000e-01 3.495238095238156e+00
9.973931072026406e-01 7.070273512785311e-02 4.999999999999998e+00
8.653443956095526e-01 4.996068197471643e-01 5.452720471638520e+00
8.653443956095527e-01 4.996068197471640e-01 5.452720471638521e+00
8.408972616904894e-01 5.400395384261474e-01 5.500000000000001e+00
8.408972616904897e-01 5.400395384261472e-01 5.500000000000000e+00
7.071067811870000e-01 7.071067811870000e-01 5.714601836600000e+00
7.071067811870000e-01 7.071067811870000e-01 5.714601836600000e+00
4.996068197465661e-01 8.653443956085167e-01 5.976483201563966e+00
4.996068197465660e-01 8.653443956085167e-01 5.976483201563966e+00
4.790802794564817e-01 8.767986476944817e-01 6.000000000000001e+00
4.790802794564817e-01 8.767986476944815e-01 6.000000000000001e+00
0.000000000000000e+00 1.000000000000000e+00 6.500000000000000e+00
1.000000000000000e-01 3.000000000000000e-01 7.500000000000000e+00
4.999999999999999e-01 3.000000000000000e-01 7.709523809523774e+00
5.000000000000000e-01 3.000000000000000e-01 7.709523809523774e+00
1.000000000000000e+00 3.000000000000000e-01 7.971428571428627e+00
1.054545454545370e+00 3.000000000000000e-01 7.999999999999999e+00
1.150000000000000e+00 3.000000000000000e-01 8.050000000000001e+00
9.999999999999996e-01 3.000000000000000e-01 7.971428571428627e+00
1.054545454545370e+00 3.000000000000000e-01 7.999999999999999e+00
1.150000000000000e+00 3.000000000000000e-01 8.050000000000001e+00
1.500000000000000e+00 3.000000000000000e-01 8.233333333333286e+00
1.500000000000000e+00 3.000000000000000e-01 8.233333333333286e+00
2.000000000000000e+00 3.000000000000000e-01 8.495238095238156e+00
9.973931072026406e-01 7.070273512785397e-02 1.000000000000000e+01
8.653443956095526e-01 4.996068197471642e-01 1.045272047163852e+01
8.653443956095525e-01 4.996068197471640e-01 1.045272047163852e+01
8.408972616904911e-01 5.400395384261447e-01 1.050000000000000e+01
8.408972616904904e-01 5.400395384261458e-01 1.050000000000000e+01
7.071067811870000e-01 7.071067811870000e-01 1.071460183660000e+01
7.071067811870000e-01 7.071067811870000e-01 1.071460183660000e+01
4.996068197465661e-01 8.653443956085167e-01 1.097648320156397e+01
4.996068197465660e-01 8.653443956085166e-01 1.097648320156397e+01
4.790802794564824e-01 8.767986476944813e-01 1.100000000000000e+01
4.790802794564840e-01 8.767986476944802e-01 1.100000000000000e+01
0.000000000000000e+00 1.000000000000000e+00 1.150000000000000e+01
1.000000000000000e-01 3.000000000000000e-01 1.250000000000000e+01
4.999999999999999e-01 3.000000000000000e-01 1.270952380952378e+01
4.999999999999999e-01 3.000000000000000e-01 1.270952380952378e+01
9.999999999999999e-01 3.000000000000000e-01 1.297142857142863e+01
1.054545454545370e+00 3.000000000000000e-01 1.300000000000000e+01
1.150000000000000e+00 3.000000000000000e-01 1.305000000000000e+01
1.000000000000000e+00 3.000000000000000e-01 1.297142857142863e+01
1.054545454545363e+00 2.999999999999999e-01 1.299999999999999e+01
1.150000000000000e+00 3.000000000000000e-01 1.305000000000000e+01
1.500000000000000e+00 3.000000000000000e-01 1.323333333333329e+01
1.500000000000000e+00 3.000000000000000e-01 1.323333333333329e+01
2.000000000000000e+00 3.000000000000000e-01 1.349523809523816e+01
9.099418396092167e-01 4.123520859599072e-01 1.535465927548243e+01
8.072131304353306e-01 5.895942770789958e-01 1.555997188189464e+01
7.282911557660177e-01 6.852367478256445e-01 1.568414612346445e+01
7.071067811870000e-01 7.071067811870000e-01 1.571460183660000e+01
8.072131304353315e-01 5.895942770789949e-01 1.555997188189463e+01
7.282911557660178e-01 6.852367478256446e-01 1.568414612346445e+01
9.974188365449633e-01 7.035216465623562e-02 1.499964823725036e+01
9.099418396092164e-01 4.123520859599082e-01 1.535465927548244e+01
2.540680715836868e-01 9.663884211005249e-01 1.624282971409468e+01
0.000000000000000e+00 1.000000000000000e+00 1.650000000000000e+01
7.071067811870000e-01 7.071067811870000e-01 1.571460183660000e+01
5.836739772285683e-01 8.114691146331118e-01 1.587652897058727e+01
5.836739772285665e-01 8.114691146331131e-01 1.587652897058727e+01
4.573928745921861e-01 8.882395524102783e-01 1.602452946266590e+01
4.573928745921863e-01 8.882395524102782e-01 1.602452946266590e+01
2.540680715836858e-01 9.663884211005251e-01 1.624282971409468e+01
6.456898118068776e-01 3.000000000000000e-01 1.778583752047027e+01
8.155693453509683e-01 3.000000000000000e-01 1.787482203804104e+01
4.285291040100551e-01 3.000000000000000e-01 1.767208667352903e+01
6.456898118068786e-01 3.000000000000000e-01 1.778583752047028e+01
1.000000000000000e-01 3.000000000000000e-01 1.750000000000000e+01
4.285291040100564e-01 3.000000000000000e-01 1.767208667352903e+01
1.053627568438921e+00 3.000000000000000e-01 1.799951920251567e+01
1.150000000000000e+00 3.000000000000000e-01 1.805000000000000e+01
8.155693453509688e-01 3.000000000000000e-01 1.787482203804104e+01
1.053627568438920e+00 3.000000000000000e-01 1.799951920251567e+01
1.312800678365587e+00 2.999999999999999e-01 1.813527654581049e+01
1.590794601595392e+00 3.000000000000000e-01 1.828089241035947e+01
1.590794601595394e+00 2.999999999999999e-01 1.828089241035947e+01
1.995978191111754e+00 3.000000000000000e-01 1.849313143343955e+01
1.995978191111753e+00 3.000000000000000e-01 1.849313143343955e+01
2.000000000000000e+00 3.000000000000000e-01 1.849523809523816e+01
1.150000000000000e+00 3.000000000000000e-01 1.805000000000000e+01
1.204849796232627e+00 3.000000000000000e-01 1.807873084564564e+01
1.204849796232627e+00 3.000000000000000e-01 1.807873084564563e+01
1.312800678365586e+00 3.000000000000000e-01 1.813527654581049e+01
9.099650212282833e-01 4.123008091368154e-01 2.035460298935891e+01
8.076108102509388e-01 5.890449378240545e-01 2.055929315811432e+01
7.282912294134957e-01 6.852366693390888e-01 2.068414601579194e+01
7.071067811870000e-01 7.071067811870000e-01 2.071460183660000e+01
8.076108102509387e-01 5.890449378240550e-01 2.055929315811432e+01
7.282912294134957e-01 6.852366693390887e-01 2.068414601579193e+01
9.973931080192998e-01 7.070272402876927e-02 1.999999998885323e+01
9.099650212282825e-01 4.123008091368171e-01 2.035460298935891e+01
2.527815540384724e-01 9.667300861487244e-01 2.124416147965651e+01
0.000000000000000e+00 1.000000000000000e+00 2.150000000000000e+01
7.071067811870000e-01 7.071067811870000e-01 2.071460183660000e+01
5.837516764426331e-01 8.114136823547504e-01 2.087643344895820e+01
5.837516764426303e-01 8.114136823547525e-01 2.087643344895821e+01
4.573945845398238e-01 8.882386764163273e-01 2.102452754077683e+01
4.573945845398237e-01 8.882386764163273e-01 2.102452754077683e+01
2.527815540384729e-01 9.667300861487242e-01 2.124416147965650e+01
6.456898117728429e-01 3.000000000000000e-01 2.278583752045245e+01
8.155693453656027e-01 3.000000000000000e-01 2.287482203804870e+01
4.285291039950259e-01 3.000000000000000e-01 2.267208667352115e+01
6.456898117728418e-01 2.999999999999999e-01 2.278583752045245e+01
1.000000000000000e-01 3.000000000000000e-01 2.250000000000000e+01
4.285291039950233e-01 3.000000000000000e-01 2.267208667352115e+01
1.053627568438919e+00 3.000000000000000e-01 2.299951920251566e+01
1.150000000000000e+00 3.000000000000000e-01 2.305000000000000e+01
8.155693453656017e-01 2.999999999999999e-01 2.287482203804870e+01
1.053627568438926e+00 3.000000000000000e-01 2.299951920251567e+01
1.312800678387915e+00 3.000000000000000e-01 2.313527654582219e+01
1.590794601608110e+00 3.000000000000000e-01 2.328089241036613e+01
1.590794601608110e+00 3.000000000000000e-01 2.328089241036613e+01
1.995978191109075e+00 3.000000000000000e-01 2.349313143343815e+01
1.995978191109071e+00 2.999999999999999e-01 2.349313143343814e+01
2.000000000000000e+00 3.000000000000000e-01 2.349523809523816e+01
1.150000000000000e+00 3.000000000000000e-01 2.305000000000000e+01
1.204849796220207e+00 2.999999999999999e-01 2.307873084563913e+01
1.204849796220206e+00 3.000000000000000e-01 2.307873084563913e+01
1.312800678387914e+00 3.000000000000000e-01 2.313527654582218e+01
        </DataArray>
      </Points>

      <Cells>
        <DataArray type="Int32" Name="connectivity" format="ascii">
0 1 2 3 4 5 6 7 8 9 10 11 12 13 14 15 16 17 18 19 20 21 22 23 24 25 26 27 28 29 30 31 32 33 34 35 36 37 38 39 40 41 42 43 44 45 46 47 48 49 50 51 52 53 54 55 56 57 58 59 60 61 62 63 64 65 66 67 68 69 70 71 72 73 74 75 76 77 78 79 80 81 82 83 84 85 86 87 88 89 90 91 92 93 94 95 96 97 98 99 100 101 102 103 104 105 106 107 108 109 110 111 112 113 114 115 116 117 118 119 120 121 122 123 124 125 126 127 128 129 130 131 132 133 134 135 136 137 138 139 140 141 142 143 
        </DataArray>
        <DataArray type="Int32" Name="offsets" format="ascii">

        </DataArray>
        <DataArray type="UInt8" Name="types" format="ascii">

        </DataArray>
      </Cells>

  <PointData>
        <DataArray type="Float64" Name="displacement" NumberOfComponents="3" format="ascii">
2.820079962275525e-01 2.787999667025023e-01 2.186375293260496e-02
4.178552105523192e-02 1.361961311412972e-01 -4.273908069540422e-03
4.178552105523214e-02 1.361961311412972e-01 -4.273908069540422e-03
2.892649881244902e-02 1.230730016888643e-01 -5.410298139814140e-03
2.892649881244924e-02 1.230730016888644e-01 -5.410298139814196e-03
-8.418114489945006e-03 6.887504939299216e-02 -7.827378225654824e-03
-8.418114489945006e-03 6.887504939299216e-02 -7.827378225654824e-03
-2.295005846129100e-02 1.931074507721353e-02 -7.559713330715256e-03
-2.295005846129078e-02 1.931074507721353e-02 -7.559713330715256e-03
-2.313931462360691e-02 1.600435119242682e-02 -7.440499070867967e-03
-2.313931462360702e-02 1.600435119242682e-02 -7.440499070867967e-03
0.000000000000000e+00 0.000000000000000e+00 0.000000000000000e+00
0.000000000000000e+00 0.000000000000000e+00 0.000000000000000e+00
-8.373832241246937e-03 2.907689490052057e-02 -2.593378824689019e-04
-8.373832241247103e-03 2.907689490052057e-02 -2.593378824684578e-04
-3.616914617771105e-02 1.485091153644155e-01 1.321896890082996e-05
-4.065223687528396e-02 1.672653624623174e-01 -5.020124047487862e-04
-4.927666127151009e-02 2.028457720131765e-01 -1.850223184458599e-03
-3.616914617771105e-02 1.485091153644155e-01 1.321896890082996e-05
-4.065223687528396e-02 1.672653624623171e-01 -5.020124047483421e-04
-4.927666127151009e-02 2.028457720131765e-01 -1.850223184458599e-03
-8.453102119478828e-02 3.546703231899216e-01 -1.315042200330119e-02
-8.453102119478784e-02 3.546703231899215e-01 -1.315042200330119e-02
-1.493255886216167e-01 6.272807060994181e-01 -4.770283319985769e-02
3.443903016373849e-01 3.499265360708603e-01 3.748616835328544e-02
8.030330285042975e-02 1.986647169863824e-01 -1.586074931434034e-03
8.030330285042953e-02 1.986647169863826e-01 -1.586074931434922e-03
6.480373307524179e-02 1.834673797883800e-01 -2.988180883592761e-03
6.480373307524201e-02 1.834673797883801e-01 -2.988180883591873e-03
1.546338149324544e-02 1.183086300359936e-01 -5.806053110767095e-03
1.546338149324544e-02 1.183086300359936e-01 -5.806053110767095e-03
-8.480880292695392e-03 5.435868564472601e-02 -3.881284287334807e-03
-8.480880292695336e-03 5.435868564472612e-02 -3.881284287334807e-03
-9.171273375736477e-03 4.972834930332737e-02 -3.530722042089707e-03
-9.171273375736477e-03 4.972834930332759e-02 -3.530722042090595e-03
0.000000000000000e+00 0.000000000000000e+00 0.000000000000000e+00
0.000000000000000e+00 0.000000000000000e+00 0.000000000000000e+00
-2.983530889860775e-02 6.834475420803549e-02 1.084007799206255e-02
-2.983530889860786e-02 6.834475420803549e-02 1.084007799206255e-02
-1.146082171754186e-01 2.910410925757911e-01 4.041996216328503e-02
-1.262561677006094e-01 3.209972600732278e-01 4.294842396495024e-02
-1.475210440502679e-01 3.749517215609253e-01 4.647017790937902e-02
-1.146082171754187e-01 2.910410925757906e-01 4.041996216328503e-02
-1.262561677006094e-01 3.209972600732278e-01 4.294842396495024e-02
-1.475210440502679e-01 3.749517215609253e-01 4.647017790937902e-02
-2.347556388264347e-01 5.958161068519605e-01 4.779381349256084e-02
-2.347556388264349e-01 5.958161068519603e-01 4.779381349256084e-02
-3.891366598952233e-01 9.744171508519555e-01 1.761658849473058e-02
3.471181648246334e-01 3.551966235452119e-01 3.711908415238696e-02
8.136674093691820e-02 2.019760630798772e-01 -2.120329958811951e-03
8.136674093691820e-02 2.019760630798773e-01 -2.120329958811951e-03
6.575800578049840e-02 1.866108881535404e-01 -3.489162793302469e-03
6.575800578049795e-02 1.866108881535400e-01 -3.489162793302469e-03
1.596692096441477e-02 1.206733841454597e-01 -6.136223583821376e-03
1.596692096441477e-02 1.206733841454597e-01 -6.136223583821376e-03
-8.371451390073337e-03 5.574297421517271e-02 -4.033801326116304e-03
-8.371451390073337e-03 5.574297421517294e-02 -4.033801326118081e-03
-9.083801730167596e-03 5.102956610135201e-02 -3.669335515656513e-03
-9.083801730167540e-03 5.102956610135245e-02 -3.669335515658290e-03
0.000000000000000e+00 0.000000000000000e+00 0.000000000000000e+00
0.000000000000000e+00 0.000000000000000e+00 0.000000000000000e+00
-3.061874084517197e-02 6.997463508121687e-02 1.060048291549620e-02
-3.061874084517197e-02 6.997463508121687e-02 1.060048291549620e-02
-1.174077490760822e-01 2.973856197446212e-01 4.006520667954483e-02
-1.292992380211611e-01 3.278037726022957e-01 4.258911345001337e-02
-1.509866210245443e-01 3.824670538877713e-01 4.610527407620424e-02
-1.174077490760823e-01 2.973856197446214e-01 4.006520667954483e-02
-1.292992380211595e-01 3.278037726022925e-01 4.258911345001337e-02
-1.509866210245443e-01 3.824670538877713e-01 4.610527407620424e-02
-2.399580412568825e-01 6.057690532929489e-01 4.704047850466608e-02
-2.399580412568825e-01 6.057690532929489e-01 4.704047850466608e-02
-3.973475002973197e-01 9.878297996968053e-01 1.564099712879319e-02
6.466431094836644e-02 1.440317284036007e-01 -1.772007149694943e-03
2.067564907506669e-02 1.148139245502016e-01 -9.947587455576112e-03
3.021114052323637e-03 9.577627198956906e-02 -1.262539966357679e-02
-6.068857082264234e-04 9.084976476214313e-02 -1.294953009768562e-02
2.067564907506680e-02 1.148139245502016e-01 -9.947587455576112e-03
3.021114052323748e-03 9.577627198956906e-02 -1.262539966357679e-02
2.106217252927843e-01 1.959255045802269e-01 1.763667444184769e-02
6.466431094836622e-02 1.440317284036005e-01 -1.772007149696719e-03
-1.635392751163672e-02 -2.595781919147999e-04 -4.701716848828141e-03
0.000000000000000e+00 0.000000000000000e+00 0.000000000000000e+00
-6.068857082264234e-04 9.084976476214313e-02 -1.294953009768562e-02
-1.452443907762202e-02 6.100129768416385e-02 -1.259314853478699e-02
-1.452443907762213e-02 6.100129768416329e-02 -1.259314853478699e-02
-1.966260002710241e-02 3.217679998684142e-02 -1.005402083387352e-02
-1.966260002710246e-02 3.217679998684153e-02 -1.005402083387352e-02
-1.635392751163667e-02 -2.595781919147999e-04 -4.701716848824589e-03
-8.491425173674183e-03 3.220776000078729e-02 2.241461794000088e-03
-1.274987675954575e-02 5.550368760549429e-02 3.773625770950417e-03
-4.230497182658388e-03 1.133581522279087e-02 6.381723384834004e-04
-8.491425173674183e-03 3.220776000078740e-02 2.241461794003641e-03
0.000000000000000e+00 0.000000000000000e+00 0.000000000000000e+00
-4.230497182658444e-03 1.133581522279092e-02 6.381723384834004e-04
-2.022930427342184e-02 9.785439956897779e-02 5.844069224544057e-03
-2.379786825695862e-02 1.180629795679426e-01 6.526369653926167e-03
-1.274987675954575e-02 5.550368760549435e-02 3.773625770950417e-03
-2.022930427342229e-02 9.785439956897768e-02 5.844069224536952e-03
-3.025943396645236e-02 1.563589300870525e-01 6.975328532099923e-03
-4.233056405931990e-02 2.337960135751885e-01 5.312213010750355e-03
-4.233056405931968e-02 2.337960135751892e-01 5.312213010750355e-03
-6.361020676349738e-02 3.716231589576481e-01 -1.395484050878082e-03
-6.361020676349760e-02 3.716231589576478e-01 -1.395484050878082e-03
-6.384981916140631e-02 3.731287651425545e-01 -1.481711771020855e-03
-2.379786825695862e-02 1.180629795679426e-01 6.526369653926167e-03
-2.593781920765936e-02 1.303615210796291e-01 6.806796085054856e-03
-2.593781920765892e-02 1.303615210796290e-01 6.806796085061961e-03
-3.025943396645236e-02 1.563589300870522e-01 6.975328532099923e-03
1.190239627686571e-01 2.333541014983541e-01 1.888395462383841e-03
4.836301330436199e-02 1.673930856405318e-01 -4.881759071075464e-03
2.093137461228067e-02 1.290644472129249e-01 -6.053909230345766e-03
1.572329251355975e-02 1.200103544181047e-01 -6.099774321896234e-03
4.836301330436188e-02 1.673930856405317e-01 -4.881759071075464e-03
2.093137461228067e-02 1.290644472129249e-01 -6.053909230345766e-03
3.423442216890237e-01 3.507172516030339e-01 3.584232760300665e-02
1.190239627686561e-01 2.333541014983535e-01 1.888395462387393e-03
-7.876824929707538e-03 1.345236948820194e-02 5.325141889045426e-05
0.000000000000000e+00 0.000000000000000e+00 0.000000000000000e+00
1.572329251355975e-02 1.200103544181047e-01 -6.099774321896234e-03
-3.170481369056066e-03 7.674543288925439e-02 -5.092403579290306e-03
-3.170481369056399e-03 7.674543288925362e-02 -5.092403579290306e-03
-9.827048742118316e-03 4.525566802235759e-02 -3.016618654072545e-03
-9.827048742118316e-03 4.525566802235748e-02 -3.016618654072545e-03
-7.876824929707593e-03 1.345236948820194e-02 5.325141889400697e-05
-5.182561082512427e-02 1.245526231395656e-01 1.953383620323734e-02
-8.110110264761128e-02 2.015482021868234e-01 3.033934652026105e-02
-2.259034476348909e-02 4.881350273331020e-02 7.250735420303300e-03
-5.182561082512416e-02 1.245526231395652e-01 1.953383620324090e-02
0.000000000000000e+00 0.000000000000000e+00 0.000000000000000e+00
-2.259034476348881e-02 4.881350273330948e-02 7.250735420303300e-03
-1.296121515239913e-01 3.274326505646410e-01 4.343094185932372e-02
-1.512065897848603e-01 3.821619004686610e-01 4.702792868148364e-02
-8.110110264761117e-02 2.015482021868229e-01 3.033934652026105e-02
-1.296121515239927e-01 3.274326505646449e-01 4.343094185932017e-02
-1.901964075112030e-01 4.803405116850298e-01 4.997064924990724e-02
-2.652017597051832e-01 6.680605695294919e-01 4.585675141997925e-02
-2.652017597051832e-01 6.680605695294918e-01 4.585675141997925e-02
-3.954376920868712e-01 9.817954302879000e-01 1.917618699399881e-02
-3.954376920868699e-01 9.817954302878967e-01 1.917618699399881e-02
-3.968637997890636e-01 9.851229086330986e-01 1.878818912537028e-02
-1.512065897848603e-01 3.821619004686610e-01 4.702792868148364e-02
-1.639538908444524e-01 4.142187896544047e-01 4.846057140011339e-02
-1.639538908444524e-01 4.142187896544043e-01 4.846057140010984e-02
-1.901964075112026e-01 4.803405116850289e-01 4.997064924991079e-02
        </DataArray>
        <DataArray type="Float64" Name="projection_direction" NumberOfComponents="3" format="ascii">
2.453989052448868e-04 6.587573922858247e-04 -7.834814450218483e-04
4.294383344542685e-03 4.226585129003313e-03 -5.428317703820573e-04
4.294383344542352e-03 4.226585129003424e-03 -5.428317703821128e-04
-1.053428651381583e-03 -1.240313390478143e-03 -1.786953949158288e-04
-1.053428651381694e-03 -1.240313390478254e-03 -1.786953949160508e-04
-6.999921074637427e-04 -1.035234701028398e-03 1.836048296173232e-04
-6.999921074637427e-04 -1.035234701028398e-03 1.836048296173232e-04
1.532967313519651e-03 3.930691556218502e-03 -6.775810489823009e-05
1.532967313519651e-03 3.930691556218613e-03 -6.775810489800804e-05
-9.169456256225561e-04 -4.420091835515283e-04 2.574195947354641e-04
-9.169456256225006e-04 -4.420091835516393e-04 2.574195947354641e-04
0.000000000000000e+00 0.000000000000000e+00 0.000000000000000e+00
4.334224396811137e-05 7.103770772253770e-04 -1.799293401685276e-04
-2.723986775858278e-04 -3.447346484203306e-03 -4.173084337111277e-04
-2.723986775856613e-04 -3.447346484203251e-03 -4.173084337111277e-04
2.972367708382606e-04 -2.492312690889287e-03 1.337762771358442e-04
-4.102790013038593e-05 1.222928666622103e-05 -3.138281446091185e-05
-3.071469707209840e-04 5.752554517038933e-04 -1.615959273890688e-04
2.972367708382606e-04 -2.492312690889287e-03 1.337762771362883e-04
-4.102790013016389e-05 1.222928666627654e-05 -3.138281446046776e-05
-3.071469707209840e-04 5.752554517038933e-04 -1.615959273890688e-04
3.020318213327045e-04 -7.772677392290372e-04 3.339755023130664e-04
3.020318213327045e-04 -7.772677392288152e-04 3.339755023135105e-04
7.488590200253054e-04 -1.136680672762180e-03 3.368230277147610e-04
-1.239047258684955e-03 -1.572621746245284e-04 1.115117560877010e-04
3.799738355758642e-05 9.864350672561528e-05 -2.311737611968567e-04
3.799738355736437e-05 9.864350672550426e-05 -2.311737611977449e-04
-8.296228174464737e-05 -3.134614718680595e-05 6.909604053095819e-05
-8.296228174486941e-05 -3.134614718680595e-05 6.909604053095819e-05
-6.710155645395233e-05 -3.831453089986336e-05 4.863997008008880e-05
-6.710155645395233e-05 -3.831453089986336e-05 4.863997008008880e-05
-3.925760834155856e-05 6.715157505798874e-05 -2.422474654029116e-05
-3.925760834150305e-05 6.715157505776670e-05 -2.422474654117934e-05
-5.248769778715134e-05 1.470417301907556e-05 3.451189074077377e-05
-5.248769778692930e-05 1.470417301896454e-05 3.451189074255012e-05
0.000000000000000e+00 0.000000000000000e+00 8.881784197001252e-16
-1.531127691493939e-04 -1.283437541486576e-03 -5.796406552116551e-04
5.847091911764801e-05 -2.652973751531840e-04 -9.526199032805494e-05
5.847091911770352e-05 -2.652973751530729e-04 -9.526199032716676e-05
-1.760949187487038e-04 1.732187650103079e-04 -2.166632473610264e-05
2.504475679316887e-04 1.617093512705781e-04 1.443835704417751e-04
-3.728857341100955e-05 -1.162955590829906e-04 -5.911462125318678e-05
-1.760949187481486e-04 1.732187650108630e-04 -2.166632473610264e-05
2.504475679315776e-04 1.617093512705781e-04 1.443835704399987e-04
-3.728857341100955e-05 -1.162955590829906e-04 -5.911462125318678e-05
8.500841568848116e-05 -1.243200665643762e-04 1.498497656022835e-04
8.500841568870321e-05 -1.243200665640432e-04 1.498497656022835e-04
-1.408361363641752e-05 -1.211887601169082e-04 -1.604027864861024e-04
-9.184751667359325e-04 -3.025214365301454e-04 -3.608455349777273e-04
9.293068031002161e-05 1.014116970371459e-04 -2.995706555424249e-04
9.293068031013263e-05 1.014116970373680e-04 -2.995706555442013e-04
3.188906376161427e-05 -4.793997258112359e-05 -4.210488741662743e-06
3.188906376150324e-05 -4.793997258101257e-05 -4.210488743439100e-06
-5.332381455613877e-06 -1.121250690461206e-05 -9.531765844172924e-06
-5.332381455613877e-06 -1.121250690461206e-05 -9.531765844172924e-06
7.289832167800547e-06 8.657825253777229e-05 -2.053006881475028e-05
7.289832167911570e-06 8.657825253777229e-05 -2.053006881119757e-05
5.076907862844315e-05 7.897751374441597e-05 -3.647481637614192e-06
5.076907862860969e-05 7.897751374474904e-05 -3.647481635837835e-06
0.000000000000000e+00 0.000000000000000e+00 0.000000000000000e+00
-1.265048688645493e-04 -1.116808605105157e-03 -4.474716597293593e-04
1.032886176755010e-06 -1.987809354538905e-04 -4.624677279352341e-05
1.032886176977055e-06 -1.987809354540016e-04 -4.624677279529976e-05
-1.338295284653013e-04 8.698645715177200e-06 -3.982710471817086e-05
2.763801439722435e-04 4.790860679915188e-05 1.133383635814056e-04
-1.056776860245412e-04 -8.338812669073103e-05 -1.008663846313596e-04
-1.338295284660784e-04 8.698645715399245e-06 -3.982710471639450e-05
2.763801439722435e-04 4.790860679948494e-05 1.133383635849583e-04
-1.056776860245412e-04 -8.338812669073103e-05 -1.008663846313596e-04
-8.031701408395264e-06 -1.036705578193464e-04 4.461875831296425e-05
-8.031701408617309e-06 -1.036705578191244e-04 4.461875831474060e-05
3.740782316441482e-05 -5.610037667125312e-05 9.340135036950414e-06
2.521920773907116e-03 4.598656509092414e-03 -6.546851712911916e-04
-2.181651758156988e-03 -2.901346717928965e-03 1.874258222915870e-04
4.916927657385273e-03 7.309045465972885e-03 -7.295517550840458e-04
2.361823376119454e-03 3.372124546509814e-03 -2.362447513348798e-04
-2.181651758157210e-03 -2.901346717928965e-03 1.874258222933634e-04
4.916927657384940e-03 7.309045465972774e-03 -7.295517550875985e-04
-2.021262807364810e-03 1.603196515646166e-03 -1.753211518700226e-04
2.521920773907005e-03 4.598656509092192e-03 -6.546851712965207e-04
-1.009576582174126e-03 -1.940513198063876e-03 3.916841214568478e-04
6.546103683576874e-18 0.000000000000000e+00 0.000000000000000e+00
2.361823376119454e-03 3.372124546509814e-03 -2.362447513348798e-04
-2.558555915396998e-03 -3.372029582290992e-03 2.576038841475281e-04
-2.558555915396998e-03 -3.372029582290992e-03 2.576038841404227e-04
3.192722089370881e-03 7.509944530821433e-03 -5.097560749618424e-04
3.192722089370936e-03 7.509944530821433e-03 -5.097560749582897e-04
-1.009576582174126e-03 -1.940513198063876e-03 3.916841214497424e-04
-4.424585242668311e-05 -1.522774946551286e-04 -1.638291860324159e-04
3.388949102901551e-04 -1.470362147746818e-03 2.413948095103535e-04
4.817255651889951e-04 -3.080126523161975e-03 -2.769689932229369e-04
-4.424585242646106e-05 -1.522774946550176e-04 -1.638291860359686e-04
-6.346691680357008e-04 1.256133037533635e-03 1.924160456034940e-04
4.817255651889951e-04 -3.080126523162086e-03 -2.769689932229369e-04
-1.482150221325806e-04 1.045694909499406e-03 -1.058413585077744e-04
-1.488555458271090e-04 -4.794264950445659e-04 6.622158327473926e-06
3.388949102902661e-04 -1.470362147746818e-03 2.413948095103535e-04
-1.482150221323586e-04 1.045694909499406e-03 -1.058413585006690e-04
9.172593428674602e-05 -3.574705743542017e-05 -1.109009544819628e-05
2.217481323232295e-04 -2.129467672084773e-03 3.578372073178571e-04
2.217481323230075e-04 -2.129467672085439e-03 3.578372073143044e-04
5.035140709179764e-04 -2.637385590557373e-03 3.025931407414362e-04
5.035140709186425e-04 -2.637385590557151e-03 3.025931407414362e-04
5.569870398081100e-04 -2.905787588005637e-03 3.143589780698619e-04
-1.488555458271090e-04 -4.794264950445659e-04 6.622158327473926e-06
-4.029611200562222e-05 -2.144388670557329e-03 1.785309002002577e-04
-4.029611200606631e-05 -2.144388670557107e-03 1.785309002002577e-04
9.172593428696807e-05 -3.574705743553119e-05 -1.109009545174899e-05
-1.296311457525956e-04 1.486538831388939e-04 5.138650997338345e-05
-8.821626483168643e-05 -7.576686306021152e-06 -3.476611706076937e-06
-1.207354787661208e-04 7.176307295797546e-05 3.621456784586030e-05
-4.488331211083274e-05 -6.425117686292836e-05 6.684235544796024e-05
-8.821626483168643e-05 -7.576686306132174e-06 -3.476611706076937e-06
-1.207354787660098e-04 7.176307295819750e-05 3.621456784586030e-05
-2.205307282589608e-03 -6.408490883552664e-05 -2.405495469410823e-04
-1.296311457517074e-04 1.486538831397821e-04 5.138650995917260e-05
-1.205449769029199e-04 5.306144092875886e-05 5.425222712318600e-05
1.460926628760383e-18 0.000000000000000e+00 -1.421085471520200e-14
-4.488331211083274e-05 -6.425117686292836e-05 6.684235544796024e-05
6.708928268817083e-06 -8.541885864166154e-05 -2.485010067587723e-05
6.708928268706060e-06 -8.541885864143950e-05 -2.485010068653537e-05
-1.456709436372661e-04 -1.726177313965405e-05 3.646952999147857e-05
-1.456709436373216e-04 -1.726177313954302e-05 3.646952998792585e-05
-1.205449769028089e-04 5.306144092853682e-05 5.425222712318600e-05
-5.045981252949083e-05 -8.588350685029278e-05 -1.254315447809518e-04
-3.439825285100895e-05 -1.435627700906439e-04 -6.542944642973225e-05
-4.740072699299658e-05 -1.071519273118660e-04 -1.174795319869304e-04
-5.045981252937981e-05 -8.588350685051482e-05 -1.254315447809518e-04
6.314026909148840e-06 -1.324556620027229e-03 -4.012271379707499e-04
-4.740072699360720e-05 -1.071519273114219e-04 -1.174795319833777e-04
1.662906525858876e-04 3.330864152284452e-05 7.899967197033675e-05
-6.882614003267395e-05 -1.398206822048609e-04 -1.915217006285275e-04
-3.439825285089793e-05 -1.435627700901998e-04 -6.542944642617954e-05
1.662906525859986e-04 3.330864152228941e-05 7.899967196323132e-05
1.073567521006069e-04 -3.675333107455714e-05 1.032441751327440e-04
-1.181922448927342e-04 -1.392432572471236e-04 5.895127442201442e-05
-1.181922448922901e-04 -1.392432572467905e-04 5.895127442556714e-05