<?xml version="1.0" ?> 
<!-- 
# vtk DataFile Version 3.0
-->
<VTKFile type="UnstructuredGrid" version="0.1" compressor="vtkZLibDataCompressor" byte_order="LittleEndian">
  <UnstructuredGrid>
    <FieldData>
      <DataArray type="Float64" Name="TIME" NumberOfTuples="1" format="ascii">
1.00000001
      </DataArray>
    </FieldData>

    <Piece NumberOfPoints="432" NumberOfCells="0" >
      <Points>
        <DataArray type="Float64" NumberOfComponents="3" format="ascii">
9.961508145972252e-01 8.592086226024845e-02 1.528071566903062e-02
9.887897073711956e-01 1.468037178864243e-01 7.666788650934654e-02
9.698962622537908e-01 2.404644815942518e-01 1.723189298689200e-01
9.380536336930722e-01 3.436060835709402e-01 2.803550731636581e-01
9.009239073701820e-01 4.317150572693559e-01 3.760244732140129e-01
8.728306729741147e-01 4.862862962232773e-01 4.374325130705180e-01
8.645372169543546e-01 5.009833640985419e-01 4.543160180413865e-01
8.613235470217895e-01 5.065291381708883e-01 4.607288499074974e-01
8.562476935757146e-01 5.151277191794387e-01 4.707191468495250e-01
8.504143017171248e-01 5.247770947824838e-01 4.820011842343861e-01
8.451597461372596e-01 5.332663647181585e-01 4.919911575819921e-01
8.417429166174110e-01 5.386878672332490e-01 4.984036215660428e-01
8.369740717620143e-01 5.461294004394486e-01 5.072479512151478e-01
8.208190763326847e-01 5.703223022532734e-01 5.363609104801736e-01
7.942732942844649e-01 6.070417183346181e-01 5.817116896770539e-01
7.623155153791229e-01 6.469935789125921e-01 6.329207197335958e-01
7.323040534311026e-01 6.809330643160265e-01 6.782591714366593e-01
7.122090597310894e-01 7.019655697919733e-01 7.073581160477863e-01
7.008280738556409e-01 7.133275282405195e-01 7.234410182242363e-01
6.750424117560742e-01 7.377186261707828e-01 7.589496380164499e-01
6.331455164199606e-01 7.737812736017835e-01 8.142762118776878e-01
5.834756456364070e-01 8.116008737485321e-01 8.767680166441256e-01
5.375809239492999e-01 8.424444628623822e-01 9.321114259419293e-01
5.072502867323505e-01 8.609022139923966e-01 9.676391852948852e-01
4.989108780625087e-01 8.657262322388349e-01 9.772781523082409e-01
4.961413847090663e-01 8.673050550132074e-01 9.804675735317165e-01
4.918169520841263e-01 8.697474089375292e-01 9.854363280879123e-01
4.869189222602973e-01 8.724802717602733e-01 9.910476635530109e-01
4.825691589487003e-01 8.748777159706708e-01 9.960164798060829e-01
4.797708681112122e-01 8.764054826174402e-01 9.992059711703659e-01
4.641739722219643e-01 8.847150706998458e-01 1.016885236121368e+00
4.030608978006651e-01 9.140673022005500e-01 1.084712850232482e+00
3.043552951980907e-01 9.515847064974028e-01 1.190380902982318e+00
1.889632452847260e-01 9.814319600937836e-01 1.309702054430989e+00
8.451378512843108e-02 9.962755514098970e-01 1.415336657292568e+00
1.687073982608985e-02 9.998507964269235e-01 1.483126243511407e+00
1.135060971593723e-01 2.999999999999999e-01 2.507074622321568e+00
1.677581227067583e-01 2.999999999999999e-01 2.535492349989220e+00
2.522761627833781e-01 3.000000000000000e-01 2.579763704315047e+00
3.477238372166552e-01 2.999999999999999e-01 2.629760105208663e+00
4.322418772932615e-01 3.000000000000000e-01 2.674031459534515e+00
4.864939028406323e-01 3.000000000000000e-01 2.702449187202197e+00
5.168826214492115e-01 3.000000000000000e-01 2.718367087425746e+00
5.846976533834305e-01 3.000000000000000e-01 2.753889247010356e+00
6.903452034791921e-01 2.999999999999999e-01 2.809228439917691e+00
8.096547965207874e-01 2.999999999999999e-01 2.871723941034747e+00
9.153023466165575e-01 3.000000000000000e-01 2.927063133942068e+00
9.831173785507854e-01 3.000000000000000e-01 2.962585293526660e+00
1.057768500458407e+00 3.000000000000000e-01 3.001688262144921e+00
1.070715006554950e+00 2.999999999999999e-01 3.008469765338345e+00
1.090884084300523e+00 3.000000000000000e-01 3.019034520347923e+00
1.113661370244847e+00 3.000000000000000e-01 3.030965479652083e+00
1.133830447990420e+00 3.000000000000000e-01 3.041530234661658e+00
1.146776954086965e+00 2.999999999999999e-01 3.048311737855079e+00
1.001841740521729e+00 3.000000000000000e-01 2.972393292654295e+00
1.009239744005451e+00 3.000000000000000e-01 2.976268437336243e+00
1.020764931288608e+00 3.000000000000000e-01 2.982305440198846e+00
1.033780523256763e+00 2.999999999999999e-01 2.989123131229781e+00
1.045305710539920e+00 3.000000000000000e-01 2.995160134092385e+00
1.052703714023642e+00 3.000000000000000e-01 2.999035278774333e+00
1.161817835014451e+00 3.000000000000000e-01 3.056190294531372e+00
1.209288357368413e+00 3.000000000000000e-01 3.081055806240567e+00
1.283241642435455e+00 3.000000000000000e-01 3.119793241275662e+00
1.366758357564573e+00 3.000000000000000e-01 3.163540092057572e+00
1.440711642631604e+00 3.000000000000000e-01 3.202277527092688e+00
1.488182164985553e+00 3.000000000000000e-01 3.227143038801907e+00
1.516882621449212e+00 3.000000000000000e-01 3.242176611235258e+00
1.584697653383433e+00 3.000000000000000e-01 3.277698770819866e+00
1.690345203479196e+00 3.000000000000000e-01 3.333037963727203e+00
1.809654796520792e+00 3.000000000000000e-01 3.395533464844262e+00
1.915302346616560e+00 3.000000000000000e-01 3.450872657751589e+00
1.983117378550786e+00 3.000000000000000e-01 3.486394817336187e+00
9.961508145975779e-01 8.592086225564063e-02 5.015280715669051e+00
9.887897073716787e-01 1.468037178823039e-01 5.076667886509384e+00
9.698962622543036e-01 2.404644815910580e-01 5.172318929868813e+00
9.380536336934090e-01 3.436060835689309e-01 5.280355073163236e+00
9.009239073702221e-01 4.317150572684103e-01 5.376024473213271e+00
8.728306729739144e-01 4.862862962229748e-01 5.437432513069590e+00
8.645372169540647e-01 5.009833640984385e-01 5.454316018040451e+00
8.613235470213982e-01 5.065291381709724e-01 5.460728849906690e+00
8.562476935751622e-01 5.151277191798120e-01 5.470719146848922e+00
8.504143017163849e-01 5.247770947831786e-01 5.482001184234013e+00
8.451597461363493e-01 5.332663647191331e-01 5.491991157581827e+00
8.417429166163889e-01 5.386878672344007e-01 5.498403621566010e+00
8.369740717609830e-01 5.461294004406132e-01 5.507247951215027e+00
8.208190763317383e-01 5.703223022543119e-01 5.536360910479583e+00
7.942732942836876e-01 6.070417183354412e-01 5.581711689675767e+00
7.623155153785933e-01 6.469935789131366e-01 5.632920719731584e+00
7.323040534308457e-01 6.809330643162858e-01 5.678259171434071e+00
7.122090597310354e-01 7.019655697920274e-01 5.707358116044865e+00
7.008280738556323e-01 7.133275282405286e-01 5.723441018221251e+00
6.750424117560395e-01 7.377186261708233e-01 5.758949638013529e+00
6.331455164199137e-01 7.737812736018588e-01 5.814276211874900e+00
5.834756456363795e-01 8.116008737486285e-01 5.876768016641527e+00
5.375809239493141e-01 8.424444628624845e-01 5.932111425939527e+00
5.072502867324002e-01 8.609022139924971e-01 5.967639185292620e+00
4.989108780625064e-01 8.657262322389699e-01 5.977278152306085e+00
4.961413847088160e-01 8.673050550134851e-01 5.980467573529864e+00
4.918169520834873e-01 8.697474089380252e-01 5.985436328086531e+00
4.869189222592172e-01 8.724802717610116e-01 5.991047663552161e+00
4.825691589472274e-01 8.748777159716193e-01 5.996016479805704e+00
4.797708681094859e-01 8.764054826185215e-01 5.999205971170290e+00
4.641739722202320e-01 8.847150707008976e-01 6.016885236121376e+00
4.030608977991809e-01 9.140673022013622e-01 6.084712850232536e+00
3.043552951970307e-01 9.515847064978846e-01 6.190380902982448e+00
1.889632452841438e-01 9.814319600939788e-01 6.309702054431162e+00
8.451378512821399e-02 9.962755514099378e-01 6.415336657292694e+00
1.687073982605329e-02 9.998507964269251e-01 6.483126243511438e+00
1.135060971593723e-01 2.999999999999999e-01 7.507074622321567e+00
1.677581227067584e-01 2.999999999999999e-01 7.535492349989219e+00
2.522761627833782e-01 3.000000000000000e-01 7.579763704315047e+00
3.477238372166552e-01 3.000000000000000e-01 7.629760105208663e+00
4.322418772932615e-01 3.000000000000000e-01 7.674031459534515e+00
4.864939028406323e-01 3.000000000000000e-01 7.702449187202197e+00
5.168826214492115e-01 3.000000000000000e-01 7.718367087425746e+00
5.846976533834306e-01 3.000000000000000e-01 7.753889247010356e+00
6.903452034791924e-01 3.000000000000000e-01 7.809228439917693e+00
8.096547965207879e-01 3.000000000000000e-01 7.871723941034748e+00
9.153023466165575e-01 3.000000000000000e-01 7.927063133942069e+00
9.831173785507861e-01 3.000000000000000e-01 7.962585293526661e+00
1.057768500458404e+00 3.000000000000000e-01 8.001688262144921e+00
1.070715006554948e+00 3.000000000000000e-01 8.008469765338344e+00
1.090884084300521e+00 3.000000000000000e-01 8.019034520347923e+00
1.113661370244846e+00 3.000000000000000e-01 8.030965479652084e+00
1.133830447990420e+00 3.000000000000000e-01 8.041530234661657e+00
1.146776954086965e+00 3.000000000000000e-01 8.048311737855082e+00
1.001841740521729e+00 2.999999999999999e-01 7.972393292654295e+00
1.009239744005451e+00 3.000000000000000e-01 7.976268437336243e+00
1.020764931288607e+00 3.000000000000000e-01 7.982305440198846e+00
1.033780523256761e+00 3.000000000000000e-01 7.989123131229781e+00
1.045305710539918e+00 2.999999999999999e-01 7.995160134092385e+00
1.052703714023640e+00 3.000000000000000e-01 7.999035278774334e+00
1.161817835014451e+00 3.000000000000000e-01 8.056190294531373e+00
1.209288357368413e+00 3.000000000000000e-01 8.081055806240567e+00
1.283241642435455e+00 3.000000000000000e-01 8.119793241275664e+00
1.366758357564573e+00 3.000000000000000e-01 8.163540092057572e+00
1.440711642631603e+00 3.000000000000000e-01 8.202277527092688e+00
1.488182164985553e+00 3.000000000000000e-01 8.227143038801907e+00
1.516882621449212e+00 3.000000000000000e-01 8.242176611235257e+00
1.584697653383433e+00 3.000000000000000e-01 8.277698770819866e+00
1.690345203479196e+00 2.999999999999999e-01 8.333037963727202e+00
1.809654796520792e+00 3.000000000000000e-01 8.395533464844263e+00
1.915302346616560e+00 3.000000000000000e-01 8.450872657751589e+00
1.983117378550787e+00 3.000000000000000e-01 8.486394817336187e+00
[...]
  <PointData>
        <DataArray type="Float64" Name="displacement" NumberOfComponents="3" format="ascii">
1.971366604552990e-01 1.975575851070495e-01 -1.435125995054009e-03
1.624867436375047e-01 1.835620089251996e-01 -2.856651319896236e-03
1.158529690589112e-01 1.617345151509112e-01 -4.952698966620789e-03
7.314205899281678e-02 1.373265088568401e-01 -7.057952801969913e-03
4.332951496922977e-02 1.162052907445533e-01 -8.602003861012342e-03
2.780300862604568e-02 1.030126522163139e-01 -9.395985481943758e-03
2.399697294146774e-02 9.944629491243973e-02 -9.583794092010378e-03
2.260189250085443e-02 9.809916393510165e-02 -9.651491713257410e-03
2.048325720867394e-02 9.600897609765124e-02 -9.752882674447350e-03
1.816988348258652e-02 9.366122363685758e-02 -9.861318496364846e-03
1.619065818341769e-02 9.159390093796438e-02 -9.951864845226421e-03
1.495406760547524e-02 9.027276445780474e-02 -1.000723364354222e-02
1.329147374215700e-02 8.845827516765392e-02 -1.008001831042343e-02
8.163767764831076e-03 8.255068423053280e-02 -1.028952402113692e-02
1.191796149063062e-03 7.356063518629896e-02 -1.051968602700304e-02
-5.279170732403582e-03 6.374992616966535e-02 -1.062927680852743e-02
-9.853097846669101e-03 5.539496484631534e-02 -1.058378802290516e-02
-1.225455920183960e-02 5.020938072873893e-02 -1.047991694373107e-02
-1.341768263609922e-02 4.740633303966035e-02 -1.039944005766313e-02
-1.570239448931332e-02 4.139564759859105e-02 -1.021944877116454e-02
-1.853689718131135e-02 3.255367413368004e-02 -9.936417834458866e-03
-2.073248231064850e-02 2.340214219457037e-02 -9.595295499298162e-03
-2.184236787140981e-02 1.610635575710573e-02 -9.256562528758727e-03
-2.216642879576719e-02 1.185347091806055e-02 -9.013245740966402e-03
-2.220414908624063e-02 1.076037394092388e-02 -8.943060546912518e-03
-2.221201097738201e-02 1.040451058130087e-02 -8.919414172053219e-03
-2.221971829530883e-02 9.855935713546371e-03 -8.882145555615173e-03
-2.222181290022590e-02 9.244990107363238e-03 -8.839414282405311e-03
-2.221785563375239e-02 8.711641745593801e-03 -8.800993835434645e-03
-2.221245650723058e-02 8.373088815376240e-03 -8.776037988715180e-03
-2.214246668868741e-02 6.551021527670731e-03 -8.633395274201261e-03
-2.126972185054199e-02 4.490887615691275e-04 -8.010303217373504e-03
-1.817396149405248e-02 -6.033703868895901e-03 -6.745128080430263e-03
-1.252509855298517e-02 -8.443983613728223e-03 -4.762329686408107e-03
-6.006708836267305e-03 -5.746738637785409e-03 -2.393278366947360e-03
-1.242908231181193e-03 -1.412239494483658e-03 -5.152319069696709e-04
-6.993191866447312e-05 1.710642221991465e-05 -6.369005280948414e-05
-3.996687940815424e-04 4.393714147142291e-04 -2.713748878484523e-04
-1.072451939903296e-03 2.241271944557699e-03 -4.565622070984432e-04
-2.072665878837199e-03 5.987870504365111e-03 -4.974388595240242e-04
-3.178667853002137e-03 1.085724582272996e-02 -4.190201501268476e-04
-4.000914563097868e-03 1.476680500036653e-02 -3.270214231982926e-04
-4.500659704622212e-03 1.722843422685394e-02 -2.649735831306010e-04
-5.719181125166006e-03 2.343444326571714e-02 -1.079576059597187e-04
-7.908633293980283e-03 3.509729514533561e-02 1.557786646122494e-04
-1.082212272800565e-02 5.126020217483090e-02 4.144818762910063e-04
-1.380690803485440e-02 6.829210611410280e-02 5.417620430074876e-04
-1.592961313048380e-02 8.060198407388414e-02 5.436463205539255e-04
-1.845811269395781e-02 9.542150336658051e-02 4.510093537302140e-04
-1.891740168910605e-02 9.812847949119113e-02 4.233380424722988e-04
-1.964528865408965e-02 1.024268755483447e-01 3.727794078085545e-04
-2.048552258672864e-02 1.074006259563312e-01 3.043042668493534e-04
-2.124577539778305e-02 1.119111414537889e-01 2.331275127409604e-04
-2.174185987931088e-02 1.148592680170264e-01 1.820162539658554e-04
-1.654476963345664e-02 8.419334919947757e-02 5.305107326676328e-04
-1.679131726738869e-02 8.563541943147257e-02 5.235370874943079e-04
-1.717937235506661e-02 8.790815482985848e-02 5.105897891661826e-04
-1.762343392261911e-02 9.051320721652018e-02 4.928300018867127e-04
-1.802182254989226e-02 9.285406338290153e-02 4.742378739597264e-04
-1.828011798780849e-02 9.437357749773029e-02 4.608468389806220e-04
-2.232297881947454e-02 1.183293320358780e-01 1.164261417510026e-04
-2.414833459206944e-02 1.295027721994797e-01 -1.445736890666183e-04
-2.697793405824966e-02 1.475901983217962e-01 -7.134084691666764e-04
-3.018486091356154e-02 1.690465609296891e-01 -1.589721211121109e-03
-3.306670334267059e-02 1.889911378290782e-01 -2.569142965090254e-03
-3.495145213180106e-02 2.022759013294042e-01 -3.296923345116554e-03
-3.610809910051160e-02 2.104947949083011e-01 -3.774070489795722e-03
-3.890359668320476e-02 2.304862864841016e-01 -5.011393284852783e-03
-4.347769262082002e-02 2.632761584335983e-01 -7.241625542234065e-03
-4.905751334019359e-02 3.028131078986645e-01 -1.019277216448389e-02
-5.445856899077217e-02 3.401391784184842e-01 -1.317824557226199e-02
-5.819420528598407e-02 3.652876997948668e-01 -1.527417300264400e-02
2.779420950629017e-01 2.938438039918774e-01 8.609835020330081e-03
2.385012679396126e-01 2.781504549806639e-01 4.991420531344382e-03
1.842648451006644e-01 2.527121240174204e-01 3.601902642866861e-04
1.328709981627999e-01 2.229860858423890e-01 -3.520556816810405e-03
9.539020259063224e-02 1.962319500499061e-01 -5.885757667012825e-03
7.499820408510660e-02 1.790427131028045e-01 -6.928010409425589e-03
6.986637174828558e-02 1.743321711148976e-01 -7.154224392828645e-03
6.796929287722231e-02 1.725456961287687e-01 -7.233594874198168e-03
6.507044233671000e-02 1.697660232037657e-01 -7.350171608295319e-03
6.187876990564523e-02 1.666324395869043e-01 -7.471606027174893e-03
5.912443018360292e-02 1.638631080468317e-01 -7.570228320779471e-03
5.739164010761788e-02 1.620883897837472e-01 -7.629187088853406e-03
5.504644706103934e-02 1.596445940907238e-01 -7.705002099710256e-03
4.768728389986554e-02 1.516366007012784e-01 -7.910531201715365e-03
3.729161004210324e-02 1.392946662022309e-01 -8.102083745849420e-03
2.704263285203223e-02 1.256004600557651e-01 -8.143198435106136e-03
1.921296654988081e-02 1.137383726460517e-01 -8.037646653317410e-03
1.477099875122434e-02 1.062758989689944e-01 -7.905409266730778e-03
1.250503612192488e-02 1.022114003035302e-01 -7.811140639488734e-03
7.984613509887994e-03 9.348017191636071e-02 -7.536087234996103e-03
2.192333609653985e-03 8.057135676171967e-02 -6.943256980765256e-03
-2.680685005651329e-03 6.703535022539220e-02 -6.081771440030970e-03
-5.680808326352205e-03 5.599878989002227e-02 -5.197603873672740e-03
-7.026935442872584e-03 4.939605604461095e-02 -4.591340276907552e-03
-7.320268288684151e-03 4.767071366186393e-02 -4.423526223674479e-03
-7.410858104123008e-03 4.710606945035267e-02 -4.367770782860880e-03
-7.545679935966498e-03 4.623262825086105e-02 -4.280715600857299e-03
-7.688818367251604e-03 4.525534394718067e-02 -4.182152307280695e-03
-7.807609534136339e-03 4.439805185007017e-02 -4.094688917912315e-03
-7.879974702740766e-03 4.385176693234616e-02 -4.038469401842271e-03
-8.227350425471236e-03 4.088083437623025e-02 -3.726170112014593e-03
-8.789244471956614e-03 3.039234769694921e-02 -2.539530277963387e-03
-7.731734596148232e-03 1.700952492748609e-02 -8.781306771794561e-04
-4.836284102962579e-03 6.412104570255095e-03 3.852465879932154e-04
-1.895547681574419e-03 1.212432522784690e-03 6.226504957664858e-04
-3.164738523720040e-04 2.705537051150841e-05 1.904043593521365e-04
-2.080740418337612e-04 9.726766991380309e-05 -5.311653707629205e-05
-1.287859521332424e-03 1.498087931111614e-03 2.584644526848479e-06
-3.720238483976290e-03 6.792814536322966e-03 8.781799265804580e-04
-7.502283638176621e-03 1.708188810252137e-02 2.865403880115025e-03
-1.170423346155913e-02 2.976023701528335e-02 5.352277193999555e-03
-1.479577603713678e-02 3.955521367990494e-02 7.239778438663080e-03
-1.665531068863302e-02 4.558090369358470e-02 8.379558281252031e-03
-2.111996639935798e-02 6.036089813384321e-02 1.109713070711216e-02
-2.888294482764819e-02 8.682390720770994e-02 1.566406593918490e-02
-3.870834347986363e-02 1.212578580962709e-01 2.100329903388864e-02
-4.822173963779919e-02 1.552910313937222e-01 2.558566373395443e-02
-5.467637798603675e-02 1.786772545717901e-01 2.832077732892468e-02
-6.205458345714199e-02 2.056504523780057e-01 3.104219201749991e-02
-6.336047682280888e-02 2.104485425350557e-01 3.147642433677866e-02
-6.540925930010011e-02 2.179897318677020e-01 3.212787544497075e-02
-6.774315112371165e-02 2.265999208001521e-01 3.282478038246595e-02
-6.982678388751973e-02 2.343038385333338e-01 3.340540333509878e-02
-7.117229720441687e-02 2.392869283542989e-01 3.375911384667951e-02
-5.650157695304203e-02 1.853273424105993e-01 2.903540645719804e-02
-5.722755672072866e-02 1.879766826495901e-01 2.931221139133910e-02
-5.836388020614636e-02 1.921282251225845e-01 2.973686143952303e-02
-5.965480280671454e-02 1.968514356951649e-01 3.020639387675050e-02
-6.080451828180355e-02 2.010639818976360e-01 3.061287939029267e-02
-6.154572288781113e-02 2.037826749319201e-01 3.086903376317718e-02
-7.274187835830159e-02 2.451163108709967e-01 3.415153120295500e-02
-7.772630809056613e-02 2.638522862136368e-01 3.526963265495198e-02
-8.560317218452695e-02 2.940669890986619e-01 3.664357829176090e-02
-9.470579380382849e-02 3.296945040232551e-01 3.764719604800426e-02
-1.029930087006623e-01 3.625778649752777e-01 3.804148160486065e-02
-1.084439504884069e-01 3.843477351013396e-01 3.804584516632836e-02
-1.117946942257559e-01 3.977610966872276e-01 3.795303274130113e-02
-1.198922858335876e-01 4.302084454560763e-01 3.744475371168576e-02
-1.330718822255592e-01 4.828705023137622e-01 3.583122302365815e-02
-1.489094710402195e-01 5.454443317858328e-01 3.277890708345410e-02
-1.639047850978386e-01 6.036063426622158e-01 2.896014417419757e-02
-1.740665963305446e-01 6.423063777578520e-01 2.594482139291010e-02
2.821535603894494e-01 3.015007836220120e-01 8.030041096178664e-03
2.422515063127774e-01 2.853692274280668e-01 4.368115012503893e-03
1.873695274921302e-01 2.593002216871205e-01 -3.041264293024426e-04
1.353404138032345e-01 2.289173139754726e-01 -4.197227678949034e-03
9.736701693031391e-02 2.016097576282138e-01 -6.548548693023903e-03
7.668767976918400e-02 1.840701408550710e-01 -7.571909549664468e-03
7.148028213067770e-02 1.792631083586635e-01 -7.791768174016056e-03
6.955486120565768e-02 1.774399205622622e-01 -7.868604841485549e-03
6.661224006177258e-02 1.746029656108338e-01 -7.981107665083087e-03
6.337168252626790e-02 1.714045399315968e-01 -8.097762007212239e-03
6.057452384986350e-02 1.685776326326626e-01 -8.191998765777697e-03
5.881447361310532e-02 1.667658676261886e-01 -8.248069445999207e-03
5.643196310272069e-02 1.642708486414008e-01 -8.319810425883034e-03
4.895215133566799e-02 1.560930282690284e-01 -8.511230586686125e-03
3.837459481180439e-02 1.434818263568176e-01 -8.678923409323858e-03
2.792771103156699e-02 1.294744350799248e-01 -8.690899928577522e-03
1.992804065456799e-02 1.173247534180110e-01 -8.558164647633149e-03
1.537892856386103e-02 1.096716176791380e-01 -8.408039644773879e-03
1.305466245512743e-02 1.054998980824045e-01 -8.303718180867392e-03
8.415299474222149e-03 9.653551393813520e-02 -8.004704368007154e-03
2.464748328358968e-03 8.327552625274215e-02 -7.370114846324327e-03
-2.550413861525880e-03 6.936181826357524e-02 -6.456520119545672e-03
-5.646982045625859e-03 5.800875531292249e-02 -5.523368335017764e-03
-7.041761493425835e-03 5.121228060473049e-02 -4.884930561114942e-03
-7.346621825191302e-03 4.943569445833562e-02 -4.708348761910841e-03
-7.440874026970690e-03 4.885422043343468e-02 -4.649691241574772e-03
-7.581252832294216e-03 4.795468605677344e-02 -4.558115006922492e-03
-7.730451404340866e-03 4.694811914662467e-02 -4.454447174600418e-03
-7.854420153344310e-03 4.606506215565753e-02 -4.362465908117841e-03
-7.930016392832862e-03 4.550232063722459e-02 -4.303347922661516e-03
-8.294016552673977e-03 4.244134145515355e-02 -3.975017646080659e-03
-8.900846353601000e-03 3.162635981698791e-02 -2.728127095181776e-03
-7.863028536420402e-03 1.779864707532297e-02 -9.815980721050721e-04
-4.936879271664113e-03 6.800707674443185e-03 3.544059075881734e-04
-1.942830671084306e-03 1.345150491163905e-03 6.245817982541979e-04
-3.256968843485634e-04 4.815071388186709e-05 1.930632182620684e-04
-2.145313792770720e-04 9.000877762810333e-05 -5.752993286201047e-05
-1.323398816891641e-03 1.496574849755794e-03 -1.779674990132207e-05
-3.810967447824498e-03 6.903799529295374e-03 8.382287753043727e-04
-7.669483435258362e-03 1.745396397279053e-02 2.810428144861987e-03
-1.195134114839397e-02 3.046459685971886e-02 5.289567244718185e-03
-1.510006687799675e-02 4.051518547707239e-02 7.174555864455812e-03
-1.699360874450562e-02 4.669660816925020e-02 8.313690749959690e-03
-2.153918887677453e-02 6.185219542418779e-02 1.103162247056133e-02
-2.944178391119301e-02 8.896120371928556e-02 1.560342063286768e-02
-3.944404706711546e-02 1.241794551541818e-01 2.095308892194936e-02
-4.913040415103653e-02 1.589212261375101e-01 2.554771242423115e-02
-5.570387479643502e-02 1.827542079186693e-01 2.829159339653664e-02
-6.321973442442308e-02 2.102003383999854e-01 3.102301522205941e-02
-6.455021591104937e-02 2.150776651762324e-01 3.145899052486634e-02
-6.663771897405524e-02 2.227403417181164e-01 3.211314894498329e-02
-6.901594234659303e-02 2.314846275268160e-01 3.281309006028188e-02
-7.113936038782054e-02 2.393043019101059e-01 3.339637326169331e-02
-7.251067223275354e-02 2.443601134978542e-01 3.375177325252743e-02
-5.756293452191652e-02 1.895251728229450e-01 2.900871318655618e-02
-5.830241642947598e-02 1.922218967655331e-01 2.928650738011562e-02
-5.945991357154590e-02 1.964467982765458e-01 2.971270301991957e-02
-6.077495063725979e-02 2.012521375975147e-01 3.018398566764624e-02
-6.194619789199973e-02 2.055367286274271e-01 3.059202341616007e-02
-6.270131177415195e-02 2.083013112898171e-01 3.084917460103220e-02
-7.411040640878208e-02 2.502728720090585e-01 3.414587639666600e-02
-7.919037275714347e-02 2.692714108134570e-01 3.526390393857604e-02
-8.721800925482670e-02 2.998942417086479e-01 3.662224419133686e-02
-9.649565124421122e-02 3.359823553162459e-01 3.758778833017651e-02
-1.049439636005376e-01 3.692743310876557e-01 3.793248774609204e-02
-1.105021801634285e-01 3.913073181101688e-01 3.789814598104257e-02
-1.139194810278001e-01 4.048801983646550e-01 3.777959691995747e-02
-1.221800937289008e-01 4.377061428344225e-01 3.720429529423619e-02
-1.356324023358719e-01 4.909641159555787e-01 3.547203642025920e-02
-1.518109982413487e-01 5.542228790231041e-01 3.227119311263493e-02
-1.671430917263121e-01 6.130049843352150e-01 2.831463854286120e-02
-1.775407596035041e-01 6.521111023664934e-01 2.521062063395973e-02
4.050235249889811e-02 1.022974847266853e-01 -5.275216670060701e-03
3.579435106988005e-02 1.000542859798872e-01 -6.190432291832693e-03
2.911964411692136e-02 9.650358382608304e-02 -7.545387824048788e-03
2.243397814731241e-02 9.237825661260024e-02 -8.950602384064865e-03
1.715439716329381e-02 8.858974590389967e-02 -1.006304618220888e-02
1.403246082508947e-02 8.607619175148573e-02 -1.070255953473520e-02
1.158839081385699e-03 7.301014292773989e-02 -1.277522550537569e-02
7.886990861990517e-04 7.256567158113358e-02 -1.281078365967581e-02
2.139445320040734e-04 7.186830628507745e-02 -1.286226543950697e-02
-4.327576974560987e-04 7.107342574492914e-02 -1.291460376228493e-02
-1.003674012111988e-03 7.036296318887136e-02 -1.295574283706102e-02
-1.369450460293575e-03 6.990360207077728e-02 -1.297954276751589e-02
1.283591722915345e-02 8.505179783622285e-02 -1.094039585872686e-02
1.107394415678464e-02 8.347729127468617e-02 -1.128026276070671e-02
8.435632512318714e-03 8.096447062362921e-02 -1.175873017670881e-02
5.587035314645328e-03 7.803154256016154e-02 -1.221967554020509e-02
3.155265768142401e-03 7.534281923961295e-02 -1.255283675204844e-02
1.628102468264170e-03 7.356833569415278e-02 -1.272751061554622e-02
1.395861224247217e-01 1.315029378375734e-01 7.087027902082710e-03
1.205613264861232e-01 1.270796419568060e-01 5.478398549245256e-03
9.479042534383852e-02 1.205745318201642e-01 2.831980505456855e-03
7.076100279780739e-02 1.136209258421367e-01 -2.525694994925942e-04
5.338629494087965e-02 1.076389712012725e-01 -2.959165730336721e-03
4.390680843104111e-02 1.038104306955706e-01 -4.636209351019716e-03
-1.418625832276743e-02 -4.211924076807816e-03 -4.587292073967575e-03
-1.286549054257774e-02 -6.423353519671604e-03 -3.777064356416560e-03
-1.035416919387341e-02 -8.286643744329525e-03 -2.588052490324344e-03
-6.877676339493655e-03 -7.739317074595409e-03 -1.400978217905191e-03
-3.256289530922711e-03 -4.571902095432678e-03 -5.361546946112128e-04
-6.735309960555786e-04 -1.064116153023376e-03 -9.448424343361239e-05
-1.940073740590131e-03 6.917191377316056e-02 -1.301271554710937e-02
-3.787190583015687e-03 6.656931400960842e-02 -1.308608096262631e-02
-6.413781078567826e-03 6.215464354157607e-02 -1.308652318136616e-02
-9.018457244190259e-03 5.672525261178074e-02 -1.293237856634377e-02
-1.101071794758679e-02 5.160818273187373e-02 -1.267104838189503e-02
-1.213668963050663e-02 4.820705207449194e-02 -1.244681481375487e-02
-1.263158833867595e-02 4.656177529061922e-02 -1.232548033476455e-02
-1.350645969510955e-02 4.337146246358048e-02 -1.206804498803571e-02
-1.467715816234927e-02 3.834079433674487e-02 -1.160669317768992e-02
-1.572228276263404e-02 3.263467147914323e-02 -1.100659771306667e-02
-1.640707037975270e-02 2.762367174994618e-02 -1.041441970903989e-02
-1.672952836722702e-02 2.445571916820477e-02 -1.000825309116493e-02
-1.688318867511740e-02 2.253081943489732e-02 -9.749026062809918e-03
-1.711335156003535e-02 1.803053709062408e-02 -9.104166864617014e-03
-1.709191075935507e-02 1.141807691708663e-02 -8.045111113652581e-03
-1.652587607715911e-02 4.738636163091448e-03 -6.798971264249332e-03
-1.555960323035299e-02 -2.734935797722438e-04 -5.680740357803415e-03
-1.471562287773867e-02 -2.954421767956794e-03 -4.968607199806740e-03
-4.082771260413898e-03 1.701054877284019e-02 1.333788136260949e-03
-4.318053454851478e-03 1.848116447188103e-02 1.452425016658765e-03
-4.695109480439386e-03 2.088765945963705e-02 1.642760578285163e-03
-5.136367443323020e-03 2.377301834435436e-02 1.864701423766491e-03
-5.540813256014521e-03 2.647501194547408e-02 2.066335448596135e-03
-5.807233846652160e-03 2.828156866021836e-02 2.197817117544076e-03
-2.135255001353864e-03 6.124400924997775e-03 4.075530211551381e-04
-2.374468381079409e-03 7.300362846778041e-03 5.104992019973054e-04
-2.764021868964850e-03 9.331035247255537e-03 6.874703154409190e-04
-3.228773185373623e-03 1.191228481303236e-02 9.093654950582675e-04
-3.662373657689955e-03 1.444997285871202e-02 1.123103170588280e-03
-3.951662361018737e-03 1.620234137979221e-02 1.267847842697734e-03
-5.329989487577735e-05 -1.755123244384649e-05 -1.352836052248563e-05
-2.791581063133763e-04 6.648144293897040e-05 -4.684959599998706e-05
-6.686747940060633e-04 6.858546915591290e-04 -3.517294551258487e-05
-1.164018556778057e-03 2.090371148434411e-03 6.330354271355532e-05
-1.652050950789408e-03 3.948034894323049e-03 2.181897837552071e-04
-1.989907882176012e-03 5.439832440928105e-03 3.476780273530267e-04
-9.001139074843456e-03 5.110249624089958e-02 3.636684013418545e-03
-9.187442410258040e-03 5.248128571753324e-02 3.710909661290174e-03
-9.481174115000490e-03 5.466269993658068e-02 3.825491680579773e-03
-9.818015009663394e-03 5.717490569016681e-02 3.953151832149615e-03
-1.012083003208009e-02 5.944230086072944e-02 4.064455767395003e-03
-1.031745984223065e-02 6.091883877636384e-02 4.134954687511794e-03
-5.969051170894191e-03 2.938832762008992e-02 2.277055849436493e-03
-6.355850922155182e-03 3.206072036882734e-02 2.464305986926263e-03
-6.979398316301011e-03 3.644012143420960e-02 2.758820564213949e-03
-7.714395090173576e-03 4.169847199211851e-02 3.092542105399332e-03
-8.392629301178900e-03 4.662758072360390e-02 3.386060397154722e-03
-8.841600392576199e-03 4.992491498928636e-02 3.572177895915019e-03
-1.292126000922122e-02 8.250369031612348e-02 4.803309768902864e-03