<?xml version="1.0" ?> 
<!-- 
# vtk DataFile Version 3.0
-->
<VTKFile type="UnstructuredGrid" version="0.1" compressor="vtkZLibDataCompressor" byte_order="LittleEndian">
  <UnstructuredGrid>
    <FieldData>
      <DataArray type="Float64" Name="TIME" NumberOfTuples="1" format="ascii">
3.000000000000000e+00 
      </DataArray>
    </FieldData>

    <Piece NumberOfPoints="2447" NumberOfCells="267" >
      <Points>
        <DataArray type="Float64" NumberOfComponents="3" format="ascii">
7.000000000000000e-01 0.000000000000000e+00 0.000000000000000e+00
6.062177826489999e-01 3.500000000000000e-01 0.000000000000000e+00
6.062177826489999e-01 3.500000000000000e-01 5.000000000000000e-01
7.000000000000000e-01 0.000000000000000e+00 5.000000000000000e-01
1.000000000000000e+00 0.000000000000000e+00 0.000000000000000e+00
8.660254037839999e-01 5.000000000000000e-01 0.000000000000000e+00
8.660254037839999e-01 5.000000000000000e-01 5.000000000000000e-01
1.000000000000000e+00 0.000000000000000e+00 5.000000000000000e-01
6.062177826489999e-01 3.500000000000000e-01 0.000000000000000e+00
3.500000000000000e-01 6.062177826489999e-01 0.000000000000000e+00
3.500000000000000e-01 6.062177826489999e-01 5.000000000000000e-01
6.062177826489999e-01 3.500000000000000e-01 5.000000000000000e-01
8.660254037839999e-01 5.000000000000000e-01 0.000000000000000e+00
5.000000000000000e-01 8.660254037839999e-01 0.000000000000000e+00
5.000000000000000e-01 8.660254037839999e-01 5.000000000000000e-01
8.660254037839999e-01 5.000000000000000e-01 5.000000000000000e-01
3.500000000000000e-01 6.062177826489999e-01 0.000000000000000e+00
0.000000000000000e+00 7.000000000000000e-01 0.000000000000000e+00
0.000000000000000e+00 7.000000000000000e-01 5.000000000000000e-01
3.500000000000000e-01 6.062177826489999e-01 5.000000000000000e-01
5.000000000000000e-01 8.660254037839999e-01 0.000000000000000e+00
0.000000000000000e+00 1.000000000000000e+00 0.000000000000000e+00
0.000000000000000e+00 1.000000000000000e+00 5.000000000000000e-01
5.000000000000000e-01 8.660254037839999e-01 5.000000000000000e-01
7.000000000000000e-01 0.000000000000000e+00 5.000000000000000e-01
6.062177826489999e-01 3.500000000000000e-01 5.000000000000000e-01
6.062177826489999e-01 3.500000000000000e-01 1.000000000000000e+00
7.000000000000000e-01 0.000000000000000e+00 1.000000000000000e+00
1.000000000000000e+00 0.000000000000000e+00 5.000000000000000e-01
8.660254037839999e-01 5.000000000000000e-01 5.000000000000000e-01
8.660254037839999e-01 5.000000000000000e-01 1.000000000000000e+00
1.000000000000000e+00 0.000000000000000e+00 1.000000000000000e+00
6.062177826489999e-01 3.500000000000000e-01 5.000000000000000e-01
3.500000000000000e-01 6.062177826489999e-01 5.000000000000000e-01
3.500000000000000e-01 6.062177826489999e-01 1.000000000000000e+00
6.062177826489999e-01 3.500000000000000e-01 1.000000000000000e+00
8.660254037839999e-01 5.000000000000000e-01 5.000000000000000e-01
5.000000000000000e-01 8.660254037839999e-01 5.000000000000000e-01
5.000000000000000e-01 8.660254037839999e-01 1.000000000000000e+00
8.660254037839999e-01 5.000000000000000e-01 1.000000000000000e+00
3.500000000000000e-01 6.062177826489999e-01 5.000000000000000e-01
0.000000000000000e+00 7.000000000000000e-01 5.000000000000000e-01
0.000000000000000e+00 7.000000000000000e-01 1.000000000000000e+00
3.500000000000000e-01 6.062177826489999e-01 1.000000000000000e+00
5.000000000000000e-01 8.660254037839999e-01 5.000000000000000e-01
0.000000000000000e+00 1.000000000000000e+00 5.000000000000000e-01
0.000000000000000e+00 1.000000000000000e+00 1.000000000000000e+00
5.000000000000000e-01 8.660254037839999e-01 1.000000000000000e+00
7.000000000000000e-01 0.000000000000000e+00 1.000000000000000e+00
6.062177826489999e-01 3.500000000000000e-01 1.000000000000000e+00
6.062177826489999e-01 3.500000000000000e-01 1.500000000000000e+00
7.000000000000000e-01 0.000000000000000e+00 1.500000000000000e+00
1.000000000000000e+00 0.000000000000000e+00 1.000000000000000e+00
8.660254037839999e-01 5.000000000000000e-01 1.000000000000000e+00
8.660254037839999e-01 5.000000000000000e-01 1.500000000000000e+00
1.000000000000000e+00 0.000000000000000e+00 1.500000000000000e+00
6.062177826489999e-01 3.500000000000000e-01 1.000000000000000e+00
3.500000000000000e-01 6.062177826489999e-01 1.000000000000000e+00
3.500000000000000e-01 6.062177826489999e-01 1.500000000000000e+00
6.062177826489999e-01 3.500000000000000e-01 1.500000000000000e+00
8.660254037839999e-01 5.000000000000000e-01 1.000000000000000e+00
5.000000000000000e-01 8.660254037839999e-01 1.000000000000000e+00
5.000000000000000e-01 8.660254037839999e-01 1.500000000000000e+00
8.660254037839999e-01 5.000000000000000e-01 1.500000000000000e+00
3.500000000000000e-01 6.062177826489999e-01 1.000000000000000e+00
0.000000000000000e+00 7.000000000000000e-01 1.000000000000000e+00
0.000000000000000e+00 7.000000000000000e-01 1.500000000000000e+00
3.500000000000000e-01 6.062177826489999e-01 1.500000000000000e+00
5.000000000000000e-01 8.660254037839999e-01 1.000000000000000e+00
0.000000000000000e+00 1.000000000000000e+00 1.000000000000000e+00
0.000000000000000e+00 1.000000000000000e+00 1.500000000000000e+00
5.000000000000000e-01 8.660254037839999e-01 1.500000000000000e+00
0.000000000000000e+00 0.000000000000000e+00 3.500000000000000e+00
0.000000000000000e+00 0.000000000000000e+00 3.000000000000000e+00
0.000000000000000e+00 3.000000000000000e-01 3.000000000000000e+00
0.000000000000000e+00 3.000000000000000e-01 3.500000000000000e+00
5.000000000000000e-01 0.000000000000000e+00 3.500000000000000e+00
5.000000000000000e-01 0.000000000000000e+00 3.000000000000000e+00
5.000000000000000e-01 3.000000000000000e-01 3.000000000000000e+00
5.000000000000000e-01 3.000000000000000e-01 3.500000000000000e+00
0.000000000000000e+00 0.000000000000000e+00 3.000000000000000e+00
0.000000000000000e+00 0.000000000000000e+00 2.500000000000000e+00
0.000000000000000e+00 3.000000000000000e-01 2.500000000000000e+00
0.000000000000000e+00 3.000000000000000e-01 3.000000000000000e+00
5.000000000000000e-01 0.000000000000000e+00 3.000000000000000e+00
5.000000000000000e-01 0.000000000000000e+00 2.500000000000000e+00
5.000000000000000e-01 3.000000000000000e-01 2.500000000000000e+00
5.000000000000000e-01 3.000000000000000e-01 3.000000000000000e+00
5.000000000000000e-01 0.000000000000000e+00 3.500000000000000e+00
5.000000000000000e-01 0.000000000000000e+00 3.000000000000000e+00
5.000000000000000e-01 3.000000000000000e-01 3.000000000000000e+00
5.000000000000000e-01 3.000000000000000e-01 3.500000000000000e+00
1.000000000000000e+00 0.000000000000000e+00 3.500000000000000e+00
1.000000000000000e+00 0.000000000000000e+00 3.000000000000000e+00
1.000000000000000e+00 3.000000000000000e-01 3.000000000000000e+00
1.000000000000000e+00 3.000000000000000e-01 3.500000000000000e+00
5.000000000000000e-01 0.000000000000000e+00 3.000000000000000e+00
5.000000000000000e-01 0.000000000000000e+00 2.500000000000000e+00
5.000000000000000e-01 3.000000000000000e-01 2.500000000000000e+00
5.000000000000000e-01 3.000000000000000e-01 3.000000000000000e+00
1.000000000000000e+00 0.000000000000000e+00 3.000000000000000e+00
1.000000000000000e+00 0.000000000000000e+00 2.500000000000000e+00
1.000000000000000e+00 3.000000000000000e-01 2.500000000000000e+00
1.000000000000000e+00 3.000000000000000e-01 3.000000000000000e+00
1.000000000000000e+00 0.000000000000000e+00 3.500000000000000e+00
1.000000000000000e+00 0.000000000000000e+00 3.000000000000000e+00
1.000000000000000e+00 3.000000000000000e-01 3.000000000000000e+00
1.000000000000000e+00 3.000000000000000e-01 3.500000000000000e+00
1.500000000000000e+00 0.000000000000000e+00 3.500000000000000e+00
1.500000000000000e+00 0.000000000000000e+00 3.000000000000000e+00
1.500000000000000e+00 3.000000000000000e-01 3.000000000000000e+00
1.500000000000000e+00 3.000000000000000e-01 3.500000000000000e+00
1.000000000000000e+00 0.000000000000000e+00 3.000000000000000e+00
1.000000000000000e+00 0.000000000000000e+00 2.500000000000000e+00
1.000000000000000e+00 3.000000000000000e-01 2.500000000000000e+00
1.000000000000000e+00 3.000000000000000e-01 3.000000000000000e+00
1.500000000000000e+00 0.000000000000000e+00 3.000000000000000e+00
1.500000000000000e+00 0.000000000000000e+00 2.500000000000000e+00
1.500000000000000e+00 3.000000000000000e-01 2.500000000000000e+00
1.500000000000000e+00 3.000000000000000e-01 3.000000000000000e+00
1.500000000000000e+00 0.000000000000000e+00 3.500000000000000e+00
1.500000000000000e+00 0.000000000000000e+00 3.000000000000000e+00
1.500000000000000e+00 3.000000000000000e-01 3.000000000000000e+00
1.500000000000000e+00 3.000000000000000e-01 3.500000000000000e+00
2.000000000000000e+00 0.000000000000000e+00 3.500000000000000e+00
2.000000000000000e+00 0.000000000000000e+00 3.000000000000000e+00
2.000000000000000e+00 3.000000000000000e-01 3.000000000000000e+00
2.000000000000000e+00 3.000000000000000e-01 3.500000000000000e+00
1.500000000000000e+00 0.000000000000000e+00 3.000000000000000e+00
1.500000000000000e+00 0.000000000000000e+00 2.500000000000000e+00
1.500000000000000e+00 3.000000000000000e-01 2.500000000000000e+00
1.500000000000000e+00 3.000000000000000e-01 3.000000000000000e+00
2.000000000000000e+00 0.000000000000000e+00 3.000000000000000e+00
2.000000000000000e+00 0.000000000000000e+00 2.500000000000000e+00
2.000000000000000e+00 3.000000000000000e-01 2.500000000000000e+00
2.000000000000000e+00 3.000000000000000e-01 3.000000000000000e+00
7.000000000000000e-01 0.000000000000000e+00 5.000000000000000e+00
6.062177826489999e-01 3.500000000000000e-01 5.000000000000000e+00
6.062177826489999e-01 3.500000000000000e-01 5.500000000000000e+00
7.000000000000000e-01 0.000000000000000e+00 5.500000000000000e+00
1.000000000000000e+00 0.000000000000000e+00 5.000000000000000e+00
8.660254037839999e-01 5.000000000000000e-01 5.000000000000000e+00
8.660254037839999e-01 5.000000000000000e-01 5.500000000000000e+00
1.000000000000000e+00 0.000000000000000e+00 5.500000000000000e+00
[...]
  <PointData>
        <DataArray type="Float64" Name="displacement" NumberOfComponents="3" format="ascii">
3.354399975448159e-01 1.801473357809708e-01 -2.325400690121867e-02
1.684064733337787e-01 1.011849607634113e-01 -1.977454750890068e-02
1.113978928497430e-01 7.813474244693917e-02 -2.270536801602899e-02
2.596820050223316e-01 1.317193860773871e-01 -3.236117633687316e-02
3.298647068427992e-01 2.991597188279713e-01 2.447861924319116e-02
8.394457627184557e-02 1.850770066220016e-01 -1.252642288957877e-03
4.136953343007792e-02 1.353172274487172e-01 -5.188524387320276e-03
2.290481903505745e-01 2.667508188231192e-01 6.553482878001175e-03
1.684064733337787e-01 1.011849607634113e-01 -1.977454750890068e-02
4.738056819319694e-02 2.261972383191780e-02 -1.830391703197240e-06
3.528761436859410e-02 3.161286990228399e-02 -1.436125009177862e-02
1.113978928497430e-01 7.813474244693917e-02 -2.270536801602899e-02
8.394457627184557e-02 1.850770066220016e-01 -1.252642288957877e-03
-1.546139219186508e-02 3.317868854847746e-02 -1.313125294349759e-02
-5.925944696652727e-03 5.334799757209494e-02 -9.470257533622784e-03
4.136953343007792e-02 1.353172274487172e-01 -5.188524387320276e-03
4.738056819319694e-02 2.261972383191780e-02 -1.830391703197240e-06
0.000000000000000e+00 0.000000000000000e+00 0.000000000000000e+00
0.000000000000000e+00 0.000000000000000e+00 0.000000000000000e+00
3.528761436859410e-02 3.161286990228399e-02 -1.436125009177862e-02
-1.546139219186508e-02 3.317868854847746e-02 -1.313125294349759e-02
0.000000000000000e+00 0.000000000000000e+00 0.000000000000000e+00
0.000000000000000e+00 0.000000000000000e+00 0.000000000000000e+00
-5.925944696652727e-03 5.334799757209494e-02 -9.470257533622784e-03
2.596820050223316e-01 1.317193860773871e-01 -3.236117633687316e-02
1.113978928497430e-01 7.813474244693917e-02 -2.270536801602899e-02
9.280883018154965e-02 8.296716930422524e-02 -1.280293793404922e-02
1.807628029966256e-01 1.251338993005640e-01 -2.734717508137661e-02
2.290481903505745e-01 2.667508188231192e-01 6.553482878001175e-03
4.136953343007792e-02 1.353172274487172e-01 -5.188524387320276e-03
4.523520055934419e-02 1.564306754210754e-01 -8.584560760379060e-03
1.680534348073585e-01 1.959308623385927e-01 4.116596945570200e-03
1.113978928497430e-01 7.813474244693917e-02 -2.270536801602899e-02
3.528761436859410e-02 3.161286990228399e-02 -1.436125009177862e-02
2.559934758771752e-02 1.830391789975322e-02 -5.034564384585707e-03
9.280883018154965e-02 8.296716930422524e-02 -1.280293793404922e-02
4.136953343007792e-02 1.353172274487172e-01 -5.188524387320276e-03
-5.925944696652727e-03 5.334799757209494e-02 -9.470257533622784e-03
-2.259563316371150e-02 2.103032513055778e-02 -7.533500277106790e-03
4.523520055934419e-02 1.564306754210754e-01 -8.584560760379060e-03
3.528761436859410e-02 3.161286990228399e-02 -1.436125009177862e-02
0.000000000000000e+00 0.000000000000000e+00 0.000000000000000e+00
0.000000000000000e+00 0.000000000000000e+00 0.000000000000000e+00
2.559934758771752e-02 1.830391789975322e-02 -5.034564384585707e-03
-5.925944696652727e-03 5.334799757209494e-02 -9.470257533622784e-03
0.000000000000000e+00 0.000000000000000e+00 0.000000000000000e+00
0.000000000000000e+00 0.000000000000000e+00 0.000000000000000e+00
-2.259563316371150e-02 2.103032513055778e-02 -7.533500277106790e-03
1.807628029966256e-01 1.251338993005640e-01 -2.734717508137661e-02
9.280883018154965e-02 8.296716930422524e-02 -1.280293793404922e-02
7.172519378453154e-02 8.862039922207654e-02 -1.404549131499526e-02
1.380332715108754e-01 1.052631016437818e-01 -2.454749028514099e-02
1.680534348073585e-01 1.959308623385927e-01 4.116596945570200e-03
4.523520055934419e-02 1.564306754210754e-01 -8.584560760379060e-03
4.020682258497619e-02 1.220430225294020e-01 -2.911310427422357e-03
1.317716614545872e-01 1.693868212859227e-01 -3.794779631272674e-03
9.280883018154965e-02 8.296716930422524e-02 -1.280293793404922e-02
2.559934758771752e-02 1.830391789975322e-02 -5.034564384585707e-03
3.486874409636875e-02 5.494563555131396e-02 2.826309341635437e-03
7.172519378453154e-02 8.862039922207654e-02 -1.404549131499526e-02
4.523520055934419e-02 1.564306754210754e-01 -8.584560760379060e-03
-2.259563316371150e-02 2.103032513055778e-02 -7.533500277106790e-03
3.319544947131567e-03 8.306320852635719e-02 -1.510902421466614e-02
4.020682258497619e-02 1.220430225294020e-01 -2.911310427422357e-03
2.559934758771752e-02 1.830391789975322e-02 -5.034564384585707e-03
0.000000000000000e+00 0.000000000000000e+00 0.000000000000000e+00
0.000000000000000e+00 0.000000000000000e+00 0.000000000000000e+00
3.486874409636875e-02 5.494563555131396e-02 2.826309341635437e-03
-2.259563316371150e-02 2.103032513055778e-02 -7.533500277106790e-03
0.000000000000000e+00 0.000000000000000e+00 0.000000000000000e+00
0.000000000000000e+00 0.000000000000000e+00 0.000000000000000e+00
3.319544947131567e-03 8.306320852635719e-02 -1.510902421466614e-02
0.000000000000000e+00 0.000000000000000e+00 0.000000000000000e+00
0.000000000000000e+00 0.000000000000000e+00 0.000000000000000e+00
0.000000000000000e+00 0.000000000000000e+00 0.000000000000000e+00
0.000000000000000e+00 0.000000000000000e+00 0.000000000000000e+00
2.544653922104733e-02 8.468111091255205e-02 1.543884520527588e-02
2.395097796978799e-02 5.930616970473851e-02 2.465847755554954e-02
-2.093349161108798e-02 5.623721761727230e-02 -3.674866919887739e-04
-4.756722563379435e-02 7.677086042685881e-02 5.817851762749883e-03
0.000000000000000e+00 0.000000000000000e+00 0.000000000000000e+00
0.000000000000000e+00 0.000000000000000e+00 0.000000000000000e+00
0.000000000000000e+00 0.000000000000000e+00 0.000000000000000e+00
0.000000000000000e+00 0.000000000000000e+00 0.000000000000000e+00
2.395097796978799e-02 5.930616970473851e-02 2.465847755554954e-02
2.600117264582919e-02 9.675455534345496e-03 3.712943598594683e-02
2.167112198403757e-04 3.551885386126596e-03 -8.996467008415040e-04
-2.093349161108798e-02 5.623721761727230e-02 -3.674866919887739e-04
2.544653922104733e-02 8.468111091255205e-02 1.543884520527588e-02
2.395097796978799e-02 5.930616970473851e-02 2.465847755554954e-02
-2.093349161108798e-02 5.623721761727230e-02 -3.674866919887739e-04
-4.756722563379435e-02 7.677086042685881e-02 5.817851762749883e-03
1.708229554292479e-02 2.575359187333480e-01 4.527830130754208e-02
3.159165907153705e-02 1.681823299787451e-01 5.864475200738539e-02
-3.829891944264844e-02 1.522045265590418e-01 -2.482583271481632e-04
-8.342385203464925e-02 2.333791333782442e-01 -5.098350821530609e-03
2.395097796978799e-02 5.930616970473851e-02 2.465847755554954e-02
2.600117264582919e-02 9.675455534345496e-03 3.712943598594683e-02
2.167112198403757e-04 3.551885386126596e-03 -8.996467008415040e-04
-2.093349161108798e-02 5.623721761727230e-02 -3.674866919887739e-04
3.159165907153705e-02 1.681823299787451e-01 5.864475200738539e-02
5.028682875298017e-02 6.213762356719963e-02 7.656242753450612e-02
4.173756183502945e-03 4.391935856230470e-02 6.668679203610254e-03
-3.829891944264844e-02 1.522045265590418e-01 -2.482583271481632e-04
1.708229554292479e-02 2.575359187333480e-01 4.527830130754208e-02
3.159165907153705e-02 1.681823299787451e-01 5.864475200738539e-02
-3.829891944264844e-02 1.522045265590418e-01 -2.482583271481632e-04
-8.342385203464925e-02 2.333791333782442e-01 -5.098350821530609e-03
-9.612484271362066e-03 4.605693270293191e-01 6.120034015264487e-02
2.253962697136550e-02 3.158573543090481e-01 8.412110386511720e-02
-6.024708499303191e-02 2.903742908003820e-01 -2.862013171040306e-03
-1.116368800939504e-01 4.264859293367892e-01 -2.419294173522137e-02
3.159165907153705e-02 1.681823299787451e-01 5.864475200738539e-02
5.028682875298017e-02 6.213762356719963e-02 7.656242753450612e-02
4.173756183502945e-03 4.391935856230470e-02 6.668679203610254e-03
-3.829891944264844e-02 1.522045265590418e-01 -2.482583271481632e-04
2.253962697136550e-02 3.158573543090481e-01 8.412110386511720e-02
5.814201509308568e-02 1.723376428224122e-01 1.080645250965855e-01
-1.049949534214567e-02 1.500366205427907e-01 1.818571052224843e-02
-6.024708499303191e-02 2.903742908003820e-01 -2.862013171040306e-03
-9.612484271362066e-03 4.605693270293191e-01 6.120034015264487e-02
2.253962697136550e-02 3.158573543090481e-01 8.412110386511720e-02
-6.024708499303191e-02 2.903742908003820e-01 -2.862013171040306e-03
-1.116368800939504e-01 4.264859293367892e-01 -2.419294173522137e-02
-4.689755603070201e-02 6.588878903405263e-01 6.028108971656864e-02
1.788196384351582e-03 4.723723680916526e-01 9.697129205056659e-02
-8.216197844915102e-02 4.356113322980186e-01 -9.867090418512635e-03
-1.492153329780492e-01 6.279760705528689e-01 -4.772657670823189e-02
2.253962697136550e-02 3.158573543090481e-01 8.412110386511720e-02
5.814201509308568e-02 1.723376428224122e-01 1.080645250965855e-01
-1.049949534214567e-02 1.500366205427907e-01 1.818571052224843e-02
-6.024708499303191e-02 2.903742908003820e-01 -2.862013171040306e-03
1.788196384351582e-03 4.723723680916526e-01 9.697129205056659e-02
4.477256482492715e-02 2.998591063682373e-01 1.230017407742977e-01
-2.696828131307270e-02 2.737727409524593e-01 2.192499420584697e-02
-8.216197844915102e-02 4.356113322980186e-01 -9.867090418512635e-03
3.866420511482891e-01 2.364018220867800e-01 -4.310812143718343e-02
2.025042500931510e-01 1.441644023591494e-01 -2.067513923832337e-02
1.463077747192037e-01 1.167122844349284e-01 -3.011950014526308e-02
2.718914796930625e-01 1.745550497261892e-01 -4.917631648936659e-02
3.793866515556542e-01 3.598965395969872e-01 4.125255398026086e-02
1.008785973915387e-01 2.362786529176656e-01 6.502367139027119e-03
7.664297494332697e-02 1.948838422360525e-01 -1.539149267911060e-03
2.489366396347144e-01 2.803857943561804e-01 7.117845587224381e-03
2.944681526581752e-01 2.013266304459130e-01 -3.158651727531455e-02
1.767854545405856e-01 1.282588802859329e-01 -2.731017744165046e-02
2.069737150200981e-01 1.526361596162189e-01 -4.007866814263483e-02
3.317332473565146e-01 1.995463802640194e-01 -4.864108001456479e-02
2.421159550272375e-01 3.118495520427249e-01 2.598951940550405e-02
9.088154512444298e-02 2.143305947712730e-01 -5.437657416186287e-04
1.557774853132760e-01 2.485337505547692e-01 6.380817674030917e-03
3.001139758138953e-01 3.172369063892908e-01 1.843544109607047e-02
3.760914954593629e-01 3.020547447850652e-01 -2.909466353281992e-03
1.519407452880535e-01 1.895697019270695e-01 -5.859498323356385e-03
1.103513097601964e-01 1.557487193242969e-01 -1.418924781408260e-02
2.612020514439553e-01 2.266115257191370e-01 -2.129604256105044e-02
2.025042500931510e-01 1.441644023591494e-01 -2.067513923832337e-02
6.126513498642908e-02 3.407923996379175e-02 6.802618769689628e-04
5.177068406945696e-02 3.652569630709852e-02 -1.204724792046408e-02
1.463077747192037e-01 1.167122844349284e-01 -3.011950014526308e-02
1.008785973915387e-01 2.362786529176656e-01 6.502367139027119e-03
-9.672336851035039e-03 6.077816319498316e-02 -9.894539652359350e-03
-9.333885549639669e-03 6.095327772469642e-02 -6.552494354417363e-03
7.664297494332697e-02 1.948838422360525e-01 -1.539149267911060e-03
1.205714259420337e-01 8.400370792238183e-02 -8.690578042746561e-03
6.030093485600053e-02 3.780541837473050e-02 -8.685903284682016e-03
9.405023175725648e-02 7.558231675876406e-02 -2.053329158283559e-02
1.767854545405856e-01 1.282588802859329e-01 -2.731017744165046e-02
2.211070657605389e-02 1.433822208857681e-01 -3.819028378692595e-03
-8.559843550765991e-03 6.352225420589368e-02 -6.323354878627109e-03
1.912174959043311e-02 1.284698473316856e-01 -6.927896592848026e-03
9.088154512444298e-02 2.143305947712730e-01 -5.437657416186287e-04
1.519407452880535e-01 1.895697019270695e-01 -5.859498323356385e-03
2.447603573272529e-02 4.409326993202831e-02 -5.292522490755932e-03
2.079291881079636e-02 4.543855614474036e-02 -8.838664286009100e-03
1.103513097601964e-01 1.557487193242969e-01 -1.418924781408260e-02
6.126513498642908e-02 3.407923996379175e-02 6.802618769689628e-04
0.000000000000000e+00 0.000000000000000e+00 0.000000000000000e+00
0.000000000000000e+00 0.000000000000000e+00 0.000000000000000e+00
5.177068406945696e-02 3.652569630709852e-02 -1.204724792046408e-02
-9.672336851035039e-03 6.077816319498316e-02 -9.894539652359350e-03
0.000000000000000e+00 0.000000000000000e+00 0.000000000000000e+00
0.000000000000000e+00 0.000000000000000e+00 0.000000000000000e+00
-9.333885549639669e-03 6.095327772469642e-02 -6.552494354417363e-03
2.314733481678288e-02 6.720288018798578e-03 4.636230448638670e-03
0.000000000000000e+00 0.000000000000000e+00 0.000000000000000e+00
2.144720107152236e-02 1.077379064609165e-02 -6.010018141115809e-03
6.030093485600053e-02 3.780541837473050e-02 -8.685903284682016e-03
-1.072356922754011e-02 1.048996031186270e-02 -7.034349371083521e-03
0.000000000000000e+00 0.000000000000000e+00 0.000000000000000e+00
-1.057735451394181e-02 1.496765801603212e-02 -4.909051930767770e-03
-8.559843550765991e-03 6.352225420589368e-02 -6.323354878627109e-03
2.447603573272529e-02 4.409326993202831e-02 -5.292522490755932e-03
0.000000000000000e+00 0.000000000000000e+00 0.000000000000000e+00
0.000000000000000e+00 0.000000000000000e+00 0.000000000000000e+00
2.079291881079636e-02 4.543855614474036e-02 -8.838664286009100e-03
2.718914796930625e-01 1.745550497261892e-01 -4.917631648936659e-02
1.463077747192037e-01 1.167122844349284e-01 -3.011950014526308e-02
1.015288419882456e-01 8.909535589251477e-02 -2.828643146060159e-02
1.971393506996844e-01 1.283323009379511e-01 -4.970321169374733e-02
2.489366396347144e-01 2.803857943561804e-01 7.117845587224381e-03
7.664297494332697e-02 1.948838422360525e-01 -1.539149267911060e-03
5.276451856949185e-02 1.506394471299020e-01 -7.893273011035807e-04
1.849830425073560e-01 2.099484059002374e-01 -1.617601438076725e-02
2.069737150200981e-01 1.526361596162189e-01 -4.007866814263483e-02
1.216786098170902e-01 1.038138476133251e-01 -2.919808641751251e-02
1.473131558009004e-01 1.141254597847353e-01 -3.772661717763131e-02
2.287037923933723e-01 1.516092139265080e-01 -4.975049223322574e-02
1.557774853132760e-01 2.485337505547692e-01 6.380817674030917e-03
6.373287300498137e-02 1.747489385904182e-01 -1.117356162749119e-03
1.132567678485609e-01 1.892089633205852e-01 -2.512642016042501e-03
2.124663284376287e-01 2.433486225555817e-01 -5.146864236407826e-03
2.612020514439553e-01 2.266115257191370e-01 -2.129604256105044e-02
1.103513097601964e-01 1.557487193242969e-01 -1.418924781408260e-02
7.694945547374685e-02 1.194922778412111e-01 -1.476254076768712e-02
1.905262375376313e-01 1.688057879369582e-01 -3.332480327365926e-02
1.463077747192037e-01 1.167122844349284e-01 -3.011950014526308e-02
5.177068406945696e-02 3.652569630709852e-02 -1.204724792046408e-02
3.607715323236384e-02 3.215401391274014e-02 -1.350967119544703e-02
1.015288419882456e-01 8.909535589251477e-02 -2.828643146060159e-02
7.664297494332697e-02 1.948838422360525e-01 -1.539149267911060e-03
-9.333885549639669e-03 6.095327772469642e-02 -6.552494354417363e-03
-8.931853731999194e-03 5.319283335483739e-02 -3.529785587641244e-03
5.276451856949185e-02 1.506394471299020e-01 -7.893273011035807e-04
9.405023175725648e-02 7.558231675876406e-02 -2.053329158283559e-02
4.352306396763157e-02 3.551156677761746e-02 -1.277516202547521e-02
6.442269961988602e-02 6.072223949975349e-02 -2.051967322463351e-02
1.216786098170902e-01 1.038138476133251e-01 -2.919808641751251e-02
1.912174959043311e-02 1.284698473316856e-01 -6.927896592848026e-03
-8.931816411512151e-03 5.809761096040196e-02 -6.332305518743305e-03
1.132113419822530e-02 1.012760184544854e-01 -2.777550120942183e-03
6.373287300498137e-02 1.747489385904182e-01 -1.117356162749119e-03
1.103513097601964e-01 1.557487193242969e-01 -1.418924781408260e-02
2.079291881079636e-02 4.543855614474036e-02 -8.838664286009100e-03
1.322415640334354e-02 4.089409283421335e-02 -8.356601169103089e-03
7.694945547374685e-02 1.194922778412111e-01 -1.476254076768712e-02
5.177068406945696e-02 3.652569630709852e-02 -1.204724792046408e-02
0.000000000000000e+00 0.000000000000000e+00 0.000000000000000e+00
0.000000000000000e+00 0.000000000000000e+00 0.000000000000000e+00
3.607715323236384e-02 3.215401391274014e-02 -1.350967119544703e-02
-9.333885549639669e-03 6.095327772469642e-02 -6.552494354417363e-03
0.000000000000000e+00 0.000000000000000e+00 0.000000000000000e+00
0.000000000000000e+00 0.000000000000000e+00 0.000000000000000e+00
-8.931853731999194e-03 5.319283335483739e-02 -3.529785587641244e-03
2.144720107152236e-02 1.077379064609165e-02 -6.010018141115809e-03
0.000000000000000e+00 0.000000000000000e+00 0.000000000000000e+00
1.579214066593868e-02 1.085835223820023e-02 -6.557518065570373e-03
4.352306396763157e-02 3.551156677761746e-02 -1.277516202547521e-02
-1.057735451394181e-02 1.496765801603212e-02 -4.909051930767770e-03
0.000000000000000e+00 0.000000000000000e+00 0.000000000000000e+00
-1.073902547085911e-02 1.598976422501156e-02 -2.476987199146955e-03
-8.931816411512151e-03 5.809761096040196e-02 -6.332305518743305e-03
2.079291881079636e-02 4.543855614474036e-02 -8.838664286009100e-03
0.000000000000000e+00 0.000000000000000e+00 0.000000000000000e+00
0.000000000000000e+00 0.000000000000000e+00 0.000000000000000e+00
1.322415640334354e-02 4.089409283421335e-02 -8.356601169103089e-03
1.971393506996844e-01 1.283323009379511e-01 -4.970321169374733e-02
1.015288419882456e-01 8.909535589251477e-02 -2.828643146060159e-02
7.278064724935598e-02 5.290415412913851e-02 -3.045277251701169e-02
1.535545446603863e-01 8.305453507097921e-02 -5.118151465333740e-02
1.849830425073560e-01 2.099484059002374e-01 -1.617601438076725e-02
5.276451856949185e-02 1.506394471299020e-01 -7.893273011035807e-04
3.353573845405602e-02 1.061544291813770e-01 -1.737239052392494e-03
1.440563171637348e-01 1.547636299166122e-01 -2.361130361222219e-02
1.473131558009004e-01 1.141254597847353e-01 -3.772661717763131e-02
8.607164060788813e-02 7.252190665618706e-02 -2.869631298915637e-02
1.105364110037974e-01 7.193550261105906e-02 -3.930228680388829e-02
1.732298491733194e-01 1.055557896856205e-01 -4.999539568734102e-02
1.132567678485609e-01 1.892089633205852e-01 -2.512642016042501e-03
4.442561945132866e-02 1.274957196988136e-01 -1.455724563689372e-03
8.306104993967177e-02 1.371739677623434e-01 -8.876455385354335e-03
1.629670881020762e-01 1.799648237870880e-01 -2.135329780103989e-02
1.905262375376313e-01 1.688057879369582e-01 -3.332480327365926e-02
7.694945547374685e-02 1.194922778412111e-01 -1.476254076768712e-02
5.274885156417593e-02 7.939977411399055e-02 -1.579596261928827e-02
1.489134258807942e-01 1.188144755361869e-01 -3.740928252411189e-02
1.015288419882456e-01 8.909535589251477e-02 -2.828643146060159e-02
3.607715323236384e-02 3.215401391274014e-02 -1.350967119544703e-02
2.327835974283091e-02 1.187039816554263e-02 -1.725252621742070e-02
7.278064724935598e-02 5.290415412913851e-02 -3.045277251701169e-02
5.276451856949185e-02 1.506394471299020e-01 -7.893273011035807e-04
-8.931853731999194e-03 5.319283335483739e-02 -3.529785587641244e-03
-9.334239614210144e-03 2.780758905546030e-02 1.593761960662421e-03
3.353573845405602e-02 1.061544291813770e-01 -1.737239052392494e-03
6.442269961988602e-02 6.072223949975349e-02 -2.051967322463351e-02
2.856022019852320e-02 2.518820453531967e-02 -1.474174101381772e-02
4.402670903826729e-02 3.152882386895160e-02 -2.412851146732649e-02
8.607164060788813e-02 7.252190665618706e-02 -2.869631298915637e-02
1.132113419822530e-02 1.012760184544854e-01 -2.777550120942183e-03
-8.898352553481169e-03 4.360235888997938e-02 -7.139479935906949e-04
2.560964274624298e-03 6.605397288153642e-02 4.716498432501582e-04
4.442561945132866e-02 1.274957196988136e-01 -1.455724563689372e-03
7.694945547374685e-02 1.194922778412111e-01 -1.476254076768712e-02
1.322415640334354e-02 4.089409283421335e-02 -8.356601169103089e-03
6.620480488493417e-03 1.849828407025321e-02 -7.798326086310766e-03
5.274885156417593e-02 7.939977411399055e-02 -1.579596261928827e-02
3.607715323236384e-02 3.215401391274014e-02 -1.350967119544703e-02