<?xml version="1.0" ?> 
<!-- 
# vtk DataFile Version 3.0
-->
<VTKFile type="UnstructuredGrid" version="0.1" compressor="vtkZLibDataCompressor" byte_order="LittleEndian">
  <UnstructuredGrid>
    <FieldData>
      <DataArray type="Float64" Name="TIME" NumberOfTuples="1" format="ascii">
1.000000010000000e+00 
      </DataArray>
    </FieldData>

    <Piece NumberOfPoints="2447" NumberOfCells="267" >
      <Points>
        <DataArray type="Float64" NumberOfComponents="3" format="ascii">
7.000000000000000e-01 0.000000000000000e+00 0.000000000000000e+00
6.062177826489999e-01 3.500000000000000e-01 0.000000000000000e+00
6.062177826489999e-01 3.500000000000000e-01 5.000000000000000e-01
7.000000000000000e-01 0.000000000000000e+00 5.000000000000000e-01
1.000000000000000e+00 0.000000000000000e+00 0.000000000000000e+00
8.660254037839999e-01 5.000000000000000e-01 0.000000000000000e+00
8.660254037839999e-01 5.000000000000000e-01 5.000000000000000e-01
1.000000000000000e+00 0.000000000000000e+00 5.000000000000000e-01
6.062177826489999e-01 3.500000000000000e-01 0.000000000000000e+00
3.500000000000000e-01 6.062177826489999e-01 0.000000000000000e+00
3.500000000000000e-01 6.062177826489999e-01 5.000000000000000e-01
6.062177826489999e-01 3.500000000000000e-01 5.000000000000000e-01
8.660254037839999e-01 5.000000000000000e-01 0.000000000000000e+00
5.000000000000000e-01 8.660254037839999e-01 0.000000000000000e+00
5.000000000000000e-01 8.660254037839999e-01 5.000000000000000e-01
8.660254037839999e-01 5.000000000000000e-01 5.000000000000000e-01
3.500000000000000e-01 6.062177826489999e-01 0.000000000000000e+00
0.000000000000000e+00 7.000000000000000e-01 0.000000000000000e+00
0.000000000000000e+00 7.000000000000000e-01 5.000000000000000e-01
3.500000000000000e-01 6.062177826489999e-01 5.000000000000000e-01
5.000000000000000e-01 8.660254037839999e-01 0.000000000000000e+00
0.000000000000000e+00 1.000000000000000e+00 0.000000000000000e+00
0.000000000000000e+00 1.000000000000000e+00 5.000000000000000e-01
5.000000000000000e-01 8.660254037839999e-01 5.000000000000000e-01
7.000000000000000e-01 0.000000000000000e+00 5.000000000000000e-01
6.062177826489999e-01 3.500000000000000e-01 5.000000000000000e-01
6.062177826489999e-01 3.500000000000000e-01 1.000000000000000e+00
7.000000000000000e-01 0.000000000000000e+00 1.000000000000000e+00
1.000000000000000e+00 0.000000000000000e+00 5.000000000000000e-01
8.660254037839999e-01 5.000000000000000e-01 5.000000000000000e-01
8.660254037839999e-01 5.000000000000000e-01 1.000000000000000e+00
1.000000000000000e+00 0.000000000000000e+00 1.000000000000000e+00
6.062177826489999e-01 3.500000000000000e-01 5.000000000000000e-01
3.500000000000000e-01 6.062177826489999e-01 5.000000000000000e-01
3.500000000000000e-01 6.062177826489999e-01 1.000000000000000e+00
6.062177826489999e-01 3.500000000000000e-01 1.000000000000000e+00
8.660254037839999e-01 5.000000000000000e-01 5.000000000000000e-01
5.000000000000000e-01 8.660254037839999e-01 5.000000000000000e-01
5.000000000000000e-01 8.660254037839999e-01 1.000000000000000e+00
8.660254037839999e-01 5.000000000000000e-01 1.000000000000000e+00
3.500000000000000e-01 6.062177826489999e-01 5.000000000000000e-01
0.000000000000000e+00 7.000000000000000e-01 5.000000000000000e-01
0.000000000000000e+00 7.000000000000000e-01 1.000000000000000e+00
3.500000000000000e-01 6.062177826489999e-01 1.000000000000000e+00
5.000000000000000e-01 8.660254037839999e-01 5.000000000000000e-01
0.000000000000000e+00 1.000000000000000e+00 5.000000000000000e-01
0.000000000000000e+00 1.000000000000000e+00 1.000000000000000e+00
5.000000000000000e-01 8.660254037839999e-01 1.000000000000000e+00
7.000000000000000e-01 0.000000000000000e+00 1.000000000000000e+00
6.062177826489999e-01 3.500000000000000e-01 1.000000000000000e+00
6.062177826489999e-01 3.500000000000000e-01 1.500000000000000e+00
7.000000000000000e-01 0.000000000000000e+00 1.500000000000000e+00
1.000000000000000e+00 0.000000000000000e+00 1.000000000000000e+00
8.660254037839999e-01 5.000000000000000e-01 1.000000000000000e+00
8.660254037839999e-01 5.000000000000000e-01 1.500000000000000e+00
1.000000000000000e+00 0.000000000000000e+00 1.500000000000000e+00
6.062177826489999e-01 3.500000000000000e-01 1.000000000000000e+00
3.500000000000000e-01 6.062177826489999e-01 1.000000000000000e+00
3.500000000000000e-01 6.062177826489999e-01 1.500000000000000e+00
6.062177826489999e-01 3.500000000000000e-01 1.500000000000000e+00
8.660254037839999e-01 5.000000000000000e-01 1.000000000000000e+00
5.000000000000000e-01 8.660254037839999e-01 1.000000000000000e+00
5.000000000000000e-01 8.660254037839999e-01 1.500000000000000e+00
8.660254037839999e-01 5.000000000000000e-01 1.500000000000000e+00
3.500000000000000e-01 6.062177826489999e-01 1.000000000000000e+00
0.000000000000000e+00 7.000000000000000e-01 1.000000000000000e+00
0.000000000000000e+00 7.000000000000000e-01 1.500000000000000e+00
3.500000000000000e-01 6.062177826489999e-01 1.500000000000000e+00
5.000000000000000e-01 8.660254037839999e-01 1.000000000000000e+00
0.000000000000000e+00 1.000000000000000e+00 1.000000000000000e+00
0.000000000000000e+00 1.000000000000000e+00 1.500000000000000e+00
5.000000000000000e-01 8.660254037839999e-01 1.500000000000000e+00
0.000000000000000e+00 0.000000000000000e+00 3.500000000000000e+00
0.000000000000000e+00 0.000000000000000e+00 3.000000000000000e+00
0.000000000000000e+00 3.000000000000000e-01 3.000000000000000e+00
0.000000000000000e+00 3.000000000000000e-01 3.500000000000000e+00
5.000000000000000e-01 0.000000000000000e+00 3.500000000000000e+00
5.000000000000000e-01 0.000000000000000e+00 3.000000000000000e+00
5.000000000000000e-01 3.000000000000000e-01 3.000000000000000e+00
5.000000000000000e-01 3.000000000000000e-01 3.500000000000000e+00
0.000000000000000e+00 0.000000000000000e+00 3.000000000000000e+00
0.000000000000000e+00 0.000000000000000e+00 2.500000000000000e+00
0.000000000000000e+00 3.000000000000000e-01 2.500000000000000e+00
0.000000000000000e+00 3.000000000000000e-01 3.000000000000000e+00
5.000000000000000e-01 0.000000000000000e+00 3.000000000000000e+00
5.000000000000000e-01 0.000000000000000e+00 2.500000000000000e+00
5.000000000000000e-01 3.000000000000000e-01 2.500000000000000e+00
5.000000000000000e-01 3.000000000000000e-01 3.000000000000000e+00
5.000000000000000e-01 0.000000000000000e+00 3.500000000000000e+00
5.000000000000000e-01 0.000000000000000e+00 3.000000000000000e+00
5.000000000000000e-01 3.000000000000000e-01 3.000000000000000e+00
5.000000000000000e-01 3.000000000000000e-01 3.500000000000000e+00
1.000000000000000e+00 0.000000000000000e+00 3.500000000000000e+00
1.000000000000000e+00 0.000000000000000e+00 3.000000000000000e+00
1.000000000000000e+00 3.000000000000000e-01 3.000000000000000e+00
1.000000000000000e+00 3.000000000000000e-01 3.500000000000000e+00
5.000000000000000e-01 0.000000000000000e+00 3.000000000000000e+00
5.000000000000000e-01 0.000000000000000e+00 2.500000000000000e+00
5.000000000000000e-01 3.000000000000000e-01 2.500000000000000e+00
5.000000000000000e-01 3.000000000000000e-01 3.000000000000000e+00
1.000000000000000e+00 0.000000000000000e+00 3.000000000000000e+00
1.000000000000000e+00 0.000000000000000e+00 2.500000000000000e+00
1.000000000000000e+00 3.000000000000000e-01 2.500000000000000e+00
1.000000000000000e+00 3.000000000000000e-01 3.000000000000000e+00
1.000000000000000e+00 0.000000000000000e+00 3.500000000000000e+00
1.000000000000000e+00 0.000000000000000e+00 3.000000000000000e+00
1.000000000000000e+00 3.000000000000000e-01 3.000000000000000e+00
1.000000000000000e+00 3.000000000000000e-01 3.500000000000000e+00
1.500000000000000e+00 0.000000000000000e+00 3.500000000000000e+00
1.500000000000000e+00 0.000000000000000e+00 3.000000000000000e+00
1.500000000000000e+00 3.000000000000000e-01 3.000000000000000e+00
1.500000000000000e+00 3.000000000000000e-01 3.500000000000000e+00
1.000000000000000e+00 0.000000000000000e+00 3.000000000000000e+00
1.000000000000000e+00 0.000000000000000e+00 2.500000000000000e+00
1.000000000000000e+00 3.000000000000000e-01 2.500000000000000e+00
1.000000000000000e+00 3.000000000000000e-01 3.000000000000000e+00
1.500000000000000e+00 0.000000000000000e+00 3.000000000000000e+00
1.500000000000000e+00 0.000000000000000e+00 2.500000000000000e+00
1.500000000000000e+00 3.000000000000000e-01 2.500000000000000e+00
1.500000000000000e+00 3.000000000000000e-01 3.000000000000000e+00
1.500000000000000e+00 0.000000000000000e+00 3.500000000000000e+00
1.500000000000000e+00 0.000000000000000e+00 3.000000000000000e+00
1.500000000000000e+00 3.000000000000000e-01 3.000000000000000e+00
1.500000000000000e+00 3.000000000000000e-01 3.500000000000000e+00
2.000000000000000e+00 0.000000000000000e+00 3.500000000000000e+00
2.000000000000000e+00 0.000000000000000e+00 3.000000000000000e+00
2.000000000000000e+00 3.000000000000000e-01 3.000000000000000e+00
2.000000000000000e+00 3.000000000000000e-01 3.500000000000000e+00
1.500000000000000e+00 0.000000000000000e+00 3.000000000000000e+00
1.500000000000000e+00 0.000000000000000e+00 2.500000000000000e+00
1.500000000000000e+00 3.000000000000000e-01 2.500000000000000e+00
1.500000000000000e+00 3.000000000000000e-01 3.000000000000000e+00
2.000000000000000e+00 0.000000000000000e+00 3.000000000000000e+00
2.000000000000000e+00 0.000000000000000e+00 2.500000000000000e+00
2.000000000000000e+00 3.000000000000000e-01 2.500000000000000e+00
2.000000000000000e+00 3.000000000000000e-01 3.000000000000000e+00
7.000000000000000e-01 0.000000000000000e+00 5.000000000000000e+00
6.062177826489999e-01 3.500000000000000e-01 5.000000000000000e+00
6.062177826489999e-01 3.500000000000000e-01 5.500000000000000e+00
7.000000000000000e-01 0.000000000000000e+00 5.500000000000000e+00
1.000000000000000e+00 0.000000000000000e+00 5.000000000000000e+00
8.660254037839999e-01 5.000000000000000e-01 5.000000000000000e+00
8.660254037839999e-01 5.000000000000000e-01 5.500000000000000e+00
1.000000000000000e+00 0.000000000000000e+00 5.500000000000000e+00
[...]
  <PointData>
        <DataArray type="Float64" Name="displacement" NumberOfComponents="3" format="ascii">
2.523428470059034e-01 1.177769090048730e-01 -2.063996838152424e-02
1.188544741016277e-01 6.496757965128543e-02 -1.922403407248224e-02
8.301937046175407e-02 5.348477736672382e-02 -1.753902115854472e-02
2.109103737166176e-01 9.421714317030420e-02 -2.376860111350649e-02
2.479283847860469e-01 2.170699792329557e-01 -4.443705605842035e-04
5.737653433928842e-02 1.357493223731302e-01 -7.949366909330338e-03
2.525703982610053e-02 9.994900115907943e-02 -1.031623151111792e-02
1.917049557389942e-01 2.131159389722622e-01 -2.392794992186930e-03
1.188544741016277e-01 6.496757965128543e-02 -1.922403407248224e-02
2.952426623282981e-02 1.252736049005249e-02 -5.394932215791961e-04
2.425057654347042e-02 2.285876066573710e-02 -1.200908446929987e-02
8.301937046175407e-02 5.348477736672382e-02 -1.753902115854472e-02
5.737653433928842e-02 1.357493223731302e-01 -7.949366909330338e-03
-1.603880961653421e-02 2.160387517406238e-02 -1.342213950496068e-02
-3.215638471984536e-03 4.148358489879371e-02 -9.253448853105382e-03
2.525703982610053e-02 9.994900115907943e-02 -1.031623151111792e-02
2.952426623282981e-02 1.252736049005249e-02 -5.394932215791961e-04
0.000000000000000e+00 0.000000000000000e+00 0.000000000000000e+00
0.000000000000000e+00 0.000000000000000e+00 0.000000000000000e+00
2.425057654347042e-02 2.285876066573710e-02 -1.200908446929987e-02
-1.603880961653421e-02 2.160387517406238e-02 -1.342213950496068e-02
0.000000000000000e+00 0.000000000000000e+00 0.000000000000000e+00
0.000000000000000e+00 0.000000000000000e+00 0.000000000000000e+00
-3.215638471984536e-03 4.148358489879371e-02 -9.253448853105382e-03
2.109103737166176e-01 9.421714317030420e-02 -2.376860111350649e-02
8.301937046175407e-02 5.348477736672382e-02 -1.753902115854472e-02
8.074663433910984e-02 6.840024184842217e-02 -8.432889551074858e-03
1.568911909387044e-01 1.040119419152796e-01 -1.801541098076610e-02
1.917049557389942e-01 2.131159389722622e-01 -2.392794992186930e-03
2.525703982610053e-02 9.994900115907943e-02 -1.031623151111792e-02
4.119924004254629e-02 1.344457730116744e-01 -1.301579063770254e-02
1.464763563736837e-01 1.653742057903000e-01 1.678009330080316e-03
8.301937046175407e-02 5.348477736672382e-02 -1.753902115854472e-02
2.425057654347042e-02 2.285876066573710e-02 -1.200908446929987e-02
2.086550037631901e-02 1.222372843402958e-02 -2.281316370270868e-03
8.074663433910984e-02 6.840024184842217e-02 -8.432889551074858e-03
2.525703982610053e-02 9.994900115907943e-02 -1.031623151111792e-02
-3.215638471984536e-03 4.148358489879371e-02 -9.253448853105382e-03
-2.167335590491188e-02 1.300713768679845e-02 -8.888478493238856e-03
4.119924004254629e-02 1.344457730116744e-01 -1.301579063770254e-02
2.425057654347042e-02 2.285876066573710e-02 -1.200908446929987e-02
0.000000000000000e+00 0.000000000000000e+00 0.000000000000000e+00
0.000000000000000e+00 0.000000000000000e+00 0.000000000000000e+00
2.086550037631901e-02 1.222372843402958e-02 -2.281316370270868e-03
-3.215638471984536e-03 4.148358489879371e-02 -9.253448853105382e-03
0.000000000000000e+00 0.000000000000000e+00 0.000000000000000e+00
0.000000000000000e+00 0.000000000000000e+00 0.000000000000000e+00
-2.167335590491188e-02 1.300713768679845e-02 -8.888478493238856e-03
1.568911909387044e-01 1.040119419152796e-01 -1.801541098076610e-02
8.074663433910984e-02 6.840024184842217e-02 -8.432889551074858e-03
6.918260608939697e-02 8.425950807083113e-02 -1.018768303697319e-02
1.288773269186255e-01 9.761499621109436e-02 -1.443055429644604e-02
1.464763563736837e-01 1.653742057903000e-01 1.678009330080316e-03
4.119924004254629e-02 1.344457730116744e-01 -1.301579063770254e-02
4.094312927575310e-02 1.132716377739331e-01 -7.017033242673680e-03
1.246082321624657e-01 1.556732325087137e-01 -2.874039879095979e-03
8.074663433910984e-02 6.840024184842217e-02 -8.432889551074858e-03
2.086550037631901e-02 1.222372843402958e-02 -2.281316370270868e-03
3.540010189897602e-02 5.478543320453989e-02 4.398925065790938e-03
6.918260608939697e-02 8.425950807083113e-02 -1.018768303697319e-02
4.119924004254629e-02 1.344457730116744e-01 -1.301579063770254e-02
-2.167335590491188e-02 1.300713768679845e-02 -8.888478493238856e-03
6.936888228896571e-03 8.167602611627052e-02 -1.747890651024537e-02
4.094312927575310e-02 1.132716377739331e-01 -7.017033242673680e-03
2.086550037631901e-02 1.222372843402958e-02 -2.281316370270868e-03
0.000000000000000e+00 0.000000000000000e+00 0.000000000000000e+00
0.000000000000000e+00 0.000000000000000e+00 0.000000000000000e+00
3.540010189897602e-02 5.478543320453989e-02 4.398925065790938e-03
-2.167335590491188e-02 1.300713768679845e-02 -8.888478493238856e-03
0.000000000000000e+00 0.000000000000000e+00 0.000000000000000e+00
0.000000000000000e+00 0.000000000000000e+00 0.000000000000000e+00
6.936888228896571e-03 8.167602611627052e-02 -1.747890651024537e-02
0.000000000000000e+00 0.000000000000000e+00 0.000000000000000e+00
0.000000000000000e+00 0.000000000000000e+00 0.000000000000000e+00
0.000000000000000e+00 0.000000000000000e+00 0.000000000000000e+00
0.000000000000000e+00 0.000000000000000e+00 0.000000000000000e+00
1.639591068034719e-02 4.701999434821667e-02 9.196895830858432e-03
1.473640613005421e-02 3.223188164295787e-02 1.442555403957000e-02
-1.070840738795457e-02 3.125643788289322e-02 -1.119155834410861e-04
-2.509626834381373e-02 4.449075231382024e-02 3.462633526129974e-03
0.000000000000000e+00 0.000000000000000e+00 0.000000000000000e+00
0.000000000000000e+00 0.000000000000000e+00 0.000000000000000e+00
0.000000000000000e+00 0.000000000000000e+00 0.000000000000000e+00
0.000000000000000e+00 0.000000000000000e+00 0.000000000000000e+00
1.473640613005421e-02 3.223188164295787e-02 1.442555403957000e-02
1.379731435899581e-02 3.817997886325373e-03 2.068529220819851e-02
1.015693001435293e-04 1.543141544908819e-03 -7.403892475623958e-04
-1.070840738795457e-02 3.125643788289322e-02 -1.119155834410861e-04
1.639591068034719e-02 4.701999434821667e-02 9.196895830858432e-03
1.473640613005421e-02 3.223188164295787e-02 1.442555403957000e-02
-1.070840738795457e-02 3.125643788289322e-02 -1.119155834410861e-04
-2.509626834381373e-02 4.449075231382024e-02 3.462633526129974e-03
1.940829655481953e-02 1.451218329294465e-01 2.920887675906774e-02
2.263869776720947e-02 9.171221584208063e-02 3.543719318470899e-02
-1.755179966458366e-02 8.613350058758081e-02 4.957499414478313e-04
-3.998483025304045e-02 1.365945324193262e-01 -7.424323069664170e-04
1.473640613005421e-02 3.223188164295787e-02 1.442555403957000e-02
1.379731435899581e-02 3.817997886325373e-03 2.068529220819851e-02
1.015693001435293e-04 1.543141544908819e-03 -7.403892475623958e-04
-1.070840738795457e-02 3.125643788289322e-02 -1.119155834410861e-04
2.263869776720947e-02 9.171221584208063e-02 3.543719318470899e-02
2.740133143294295e-02 2.788282543175757e-02 4.293876865916418e-02
2.148766044237521e-03 2.104907371024010e-02 2.005915990340028e-03
-1.755179966458366e-02 8.613350058758081e-02 4.957499414478313e-04
1.940829655481953e-02 1.451218329294465e-01 2.920887675906774e-02
2.263869776720947e-02 9.171221584208063e-02 3.543719318470899e-02
-1.755179966458366e-02 8.613350058758081e-02 4.957499414478313e-04
-3.998483025304045e-02 1.365945324193262e-01 -7.424323069664170e-04
1.508593114371612e-02 2.628343513809354e-01 4.485039205524617e-02
2.344600716136096e-02 1.735876984753588e-01 5.333440222523217e-02
-2.495200625645398e-02 1.652065089198320e-01 2.570552315866587e-04
-4.711973942339742e-02 2.507519446414485e-01 -7.461370965459077e-03
2.263869776720947e-02 9.171221584208063e-02 3.543719318470899e-02
2.740133143294295e-02 2.788282543175757e-02 4.293876865916418e-02
2.148766044237521e-03 2.104907371024010e-02 2.005915990340028e-03
-1.755179966458366e-02 8.613350058758081e-02 4.957499414478313e-04
2.344600716136096e-02 1.735876984753588e-01 5.333440222523217e-02
3.471822794369685e-02 8.393817245897595e-02 6.229568252098815e-02
-4.233682788804521e-03 7.656860350678758e-02 7.110063345100655e-03
-2.495200625645398e-02 1.652065089198320e-01 2.570552315866587e-04
1.508593114371612e-02 2.628343513809354e-01 4.485039205524617e-02
2.344600716136096e-02 1.735876984753588e-01 5.333440222523217e-02
-2.495200625645398e-02 1.652065089198320e-01 2.570552315866587e-04
-4.711973942339742e-02 2.507519446414485e-01 -7.461370965459077e-03
3.846344661652921e-03 3.807008362708982e-01 5.175621500114010e-02
1.800674646817602e-02 2.611118116182752e-01 6.420534284197710e-02
-3.208986036270436e-02 2.478411025651581e-01 -2.380129145091029e-03
-5.904895208175947e-02 3.720844923763432e-01 -1.583192464222911e-02
2.344600716136096e-02 1.735876984753588e-01 5.333440222523217e-02
3.471822794369685e-02 8.393817245897595e-02 6.229568252098815e-02
-4.233682788804521e-03 7.656860350678758e-02 7.110063345100655e-03
-2.495200625645398e-02 1.652065089198320e-01 2.570552315866587e-04
1.800674646817602e-02 2.611118116182752e-01 6.420534284197710e-02
3.123549878432490e-02 1.530220961419928e-01 7.165758524398250e-02
-1.010737856829921e-02 1.446741421552834e-01 9.704724748589478e-03
-3.208986036270436e-02 2.478411025651581e-01 -2.380129145091029e-03
3.258291516257444e-01 1.847481467949927e-01 -4.531719308930379e-02
1.643439957333247e-01 1.175066015386151e-01 -2.074233351453925e-02
1.267758269064871e-01 9.866433865472941e-02 -2.916088647194243e-02
2.426409225216506e-01 1.455284323004810e-01 -4.951257916456455e-02
3.205809036839916e-01 3.053352717279261e-01 1.006718301426742e-02
8.300934311083226e-02 2.074891931443935e-01 -3.932176250447984e-04
6.772046054660667e-02 1.715938344289594e-01 -7.018703629235993e-03
2.259863892618570e-01 2.450467981277661e-01 -7.517377417290839e-03
2.439934536018505e-01 1.601574189304462e-01 -3.286242102233809e-02
1.475530169723666e-01 1.063481210723459e-01 -2.634450039480434e-02
1.822720608844011e-01 1.283049816757388e-01 -3.997706846014057e-02
2.861038985638299e-01 1.616589704204880e-01 -4.904652824920150e-02
1.993529859152974e-01 2.676358989068124e-01 6.801817931732705e-03
7.689714259449179e-02 1.879913244498776e-01 -6.297304919605707e-03
1.402065300594676e-01 2.182097053747971e-01 -4.307618938948529e-03
2.653373663424269e-01 2.741847245764536e-01 -2.207101006626536e-03
3.194184594779755e-01 2.471526766820495e-01 -1.912982552145447e-02
1.234735483847345e-01 1.621498128649676e-01 -1.008873784521736e-02
9.629369141699932e-02 1.352362107959309e-01 -1.689991713155287e-02
2.347815082368008e-01 1.949350174999480e-01 -2.881781906473852e-02
1.643439957333247e-01 1.175066015386151e-01 -2.074233351453925e-02
4.724228790293703e-02 2.923599990699573e-02 -6.810724212149891e-04
4.312741437537720e-02 3.106490823287266e-02 -1.074594167549176e-02
1.267758269064871e-01 9.866433865472941e-02 -2.916088647194243e-02
8.300934311083226e-02 2.074891931443935e-01 -3.932176250447984e-04
-1.375102345015532e-02 5.558818288624880e-02 -9.589960295433077e-03
-1.013237278291345e-02 5.436032680750744e-02 -6.277725282636452e-03
6.772046054660667e-02 1.715938344289594e-01 -7.018703629235993e-03
9.609244284312561e-02 7.061533772663153e-02 -8.952377845996539e-03
4.827870270508804e-02 3.207919661859134e-02 -7.823491844817183e-03
8.007825306910606e-02 6.415290287039360e-02 -1.917207987511411e-02
1.475530169723666e-01 1.063481210723459e-01 -2.634450039480434e-02
1.369423532261842e-02 1.285495810172968e-01 -5.337737214143792e-03
-1.130081998174545e-02 5.718891661463221e-02 -5.996862730152951e-03
1.551189559172703e-02 1.135628559877918e-01 -8.661676819277604e-03
7.689714259449179e-02 1.879913244498776e-01 -6.297304919605707e-03
1.234735483847345e-01 1.621498128649676e-01 -1.008873784521736e-02
1.584403645445316e-02 3.969764395008175e-02 -5.783479152611157e-03
1.601516274896081e-02 3.988806491239538e-02 -8.205093958481992e-03
9.629369141699932e-02 1.352362107959309e-01 -1.689991713155287e-02
4.724228790293703e-02 2.923599990699573e-02 -6.810724212149891e-04
0.000000000000000e+00 0.000000000000000e+00 0.000000000000000e+00
0.000000000000000e+00 0.000000000000000e+00 0.000000000000000e+00
4.312741437537720e-02 3.106490823287266e-02 -1.074594167549176e-02
-1.375102345015532e-02 5.558818288624880e-02 -9.589960295433077e-03
0.000000000000000e+00 0.000000000000000e+00 0.000000000000000e+00
0.000000000000000e+00 0.000000000000000e+00 0.000000000000000e+00
-1.013237278291345e-02 5.436032680750744e-02 -6.277725282636452e-03
1.730417554687697e-02 5.779916182318416e-03 3.147745300113372e-03
0.000000000000000e+00 0.000000000000000e+00 0.000000000000000e+00
1.752596976009867e-02 9.065019496837155e-03 -4.968650127261729e-03
4.827870270508804e-02 3.207919661859134e-02 -7.823491844817183e-03
-1.206641615353882e-02 1.088928696576329e-02 -6.633557051047875e-03
0.000000000000000e+00 0.000000000000000e+00 0.000000000000000e+00
-1.042509631949038e-02 1.386493252769462e-02 -3.938300552701016e-03
-1.130081998174545e-02 5.718891661463221e-02 -5.996862730152951e-03
1.584403645445316e-02 3.969764395008175e-02 -5.783479152611157e-03
0.000000000000000e+00 0.000000000000000e+00 0.000000000000000e+00
0.000000000000000e+00 0.000000000000000e+00 0.000000000000000e+00
1.601516274896081e-02 3.988806491239538e-02 -8.205093958481992e-03
2.426409225216506e-01 1.455284323004810e-01 -4.951257916456455e-02
1.267758269064871e-01 9.866433865472941e-02 -2.916088647194243e-02
9.157511167235931e-02 7.635365805119843e-02 -2.939813403260831e-02
1.799488624943818e-01 1.098246559582734e-01 -5.103899790958315e-02
2.259863892618570e-01 2.450467981277661e-01 -7.517377417290839e-03
6.772046054660667e-02 1.715938344289594e-01 -7.018703629235993e-03
4.851639293228095e-02 1.332374429712458e-01 -5.170540051154414e-03
1.706576111198880e-01 1.859466496404552e-01 -2.233704591438989e-02
1.822720608844011e-01 1.283049816757388e-01 -3.997706846014057e-02
1.082368975977065e-01 8.880021403234786e-02 -2.940504443192821e-02
1.339408950844764e-01 9.793101344825926e-02 -3.942841434593693e-02
2.075538746426802e-01 1.288173115403654e-01 -5.054907057000319e-02
1.402065300594676e-01 2.182097053747971e-01 -4.307618938948529e-03
5.808241900407154e-02 1.543405689862583e-01 -6.242049087801401e-03
1.042702932543074e-01 1.678142873735974e-01 -8.782678123615419e-03
1.951931515820647e-01 2.147737347316801e-01 -1.465685564361336e-02
2.347815082368008e-01 1.949350174999480e-01 -2.881781906473852e-02
9.629369141699932e-02 1.352362107959309e-01 -1.689991713155287e-02
6.979422010719233e-02 1.044934279571677e-01 -1.747235971291415e-02
1.749816308605089e-01 1.475363564351966e-01 -3.702244235288960e-02
1.267758269064871e-01 9.866433865472941e-02 -2.916088647194243e-02
4.312741437537720e-02 3.106490823287266e-02 -1.074594167549176e-02
3.183885840664501e-02 2.741924354598859e-02 -1.313610092737617e-02
9.157511167235931e-02 7.635365805119843e-02 -2.939813403260831e-02
6.772046054660667e-02 1.715938344289594e-01 -7.018703629235993e-03
-1.013237278291345e-02 5.436032680750744e-02 -6.277725282636452e-03
-7.701611904428720e-03 4.669082329312851e-02 -4.124924905272464e-03
4.851639293228095e-02 1.332374429712458e-01 -5.170540051154414e-03
8.007825306910606e-02 6.415290287039360e-02 -1.917207987511411e-02
3.752176385793739e-02 3.030738531538132e-02 -1.183096123868207e-02
5.756673890022378e-02 5.199949390260068e-02 -2.077414157890511e-02
1.082368975977065e-01 8.880021403234786e-02 -2.940504443192821e-02
1.551189559172703e-02 1.135628559877918e-01 -8.661676819277604e-03
-8.362068551956434e-03 5.129532947713424e-02 -6.426757555429920e-03
1.066925991125021e-02 8.919353414955689e-02 -5.063130445286550e-03
5.808241900407154e-02 1.543405689862583e-01 -6.242049087801401e-03
9.629369141699932e-02 1.352362107959309e-01 -1.689991713155287e-02
1.601516274896081e-02 3.988806491239538e-02 -8.205093958481992e-03
1.172896865868184e-02 3.549385180473627e-02 -8.479957214074694e-03
6.979422010719233e-02 1.044934279571677e-01 -1.747235971291415e-02
4.312741437537720e-02 3.106490823287266e-02 -1.074594167549176e-02
0.000000000000000e+00 0.000000000000000e+00 0.000000000000000e+00
0.000000000000000e+00 0.000000000000000e+00 0.000000000000000e+00
3.183885840664501e-02 2.741924354598859e-02 -1.313610092737617e-02
-1.013237278291345e-02 5.436032680750744e-02 -6.277725282636452e-03
0.000000000000000e+00 0.000000000000000e+00 0.000000000000000e+00
0.000000000000000e+00 0.000000000000000e+00 0.000000000000000e+00
-7.701611904428720e-03 4.669082329312851e-02 -4.124924905272464e-03
1.752596976009867e-02 9.065019496837155e-03 -4.968650127261729e-03
0.000000000000000e+00 0.000000000000000e+00 0.000000000000000e+00
1.373499216958737e-02 9.185626942857641e-03 -6.061326716765173e-03
3.752176385793739e-02 3.030738531538132e-02 -1.183096123868207e-02
-1.042509631949038e-02 1.386493252769462e-02 -3.938300552701016e-03
0.000000000000000e+00 0.000000000000000e+00 0.000000000000000e+00
-9.486403546991132e-03 1.400622075730064e-02 -2.333640624491736e-03
-8.362068551956434e-03 5.129532947713424e-02 -6.426757555429920e-03
1.601516274896081e-02 3.988806491239538e-02 -8.205093958481992e-03
0.000000000000000e+00 0.000000000000000e+00 0.000000000000000e+00
0.000000000000000e+00 0.000000000000000e+00 0.000000000000000e+00
1.172896865868184e-02 3.549385180473627e-02 -8.479957214074694e-03
1.799488624943818e-01 1.098246559582734e-01 -5.103899790958315e-02
9.157511167235931e-02 7.635365805119843e-02 -2.939813403260831e-02
6.569490453127085e-02 4.287534924034457e-02 -3.220751289063815e-02
1.401024393585603e-01 6.898175003428046e-02 -5.324532182640127e-02
1.706576111198880e-01 1.859466496404552e-01 -2.233704591438989e-02
4.851639293228095e-02 1.332374429712458e-01 -5.170540051154414e-03
3.106547069437468e-02 9.175378307866967e-02 -5.481936126058150e-03
1.326462395354825e-01 1.354946339518976e-01 -2.817332370883481e-02
1.339408950844764e-01 9.793101344825926e-02 -3.942841434593693e-02
7.790186683758486e-02 6.143756459463202e-02 -3.025626266566326e-02
1.004530517983195e-01 5.948913422073868e-02 -4.147457337964208e-02
1.584306150021662e-01 8.971708349286253e-02 -5.181688182899962e-02
1.042702932543074e-01 1.678142873735974e-01 -8.782678123615419e-03
4.103433431481085e-02 1.119767118893874e-01 -5.408659252417260e-03
7.635971066525513e-02 1.199135080388391e-01 -1.349575040879876e-02
1.503891152070291e-01 1.588513992792556e-01 -2.622704801894298e-02
1.749816308605089e-01 1.475363564351966e-01 -3.702244235288960e-02
6.979422010719233e-02 1.044934279571677e-01 -1.747235971291415e-02
4.799152050571248e-02 6.714089896544810e-02 -1.855376981200605e-02
1.364273459638441e-01 1.021485024997437e-01 -4.073633059478358e-02
9.157511167235931e-02 7.635365805119843e-02 -2.939813403260831e-02
3.183885840664501e-02 2.741924354598859e-02 -1.313610092737617e-02
2.079363112854660e-02 8.523433755984217e-03 -1.724600676093686e-02
6.569490453127085e-02 4.287534924034457e-02 -3.220751289063815e-02
4.851639293228095e-02 1.332374429712458e-01 -5.170540051154414e-03
-7.701611904428720e-03 4.669082329312851e-02 -4.124924905272464e-03
-7.350177781013965e-03 2.228831282201249e-02 4.113274755325503e-04
3.106547069437468e-02 9.175378307866967e-02 -5.481936126058150e-03
5.756673890022378e-02 5.199949390260068e-02 -2.077414157890511e-02
2.526218997432518e-02 2.106850304006527e-02 -1.468998901239772e-02
3.952915259610657e-02 2.466964393959615e-02 -2.498401580500172e-02
7.790186683758486e-02 6.143756459463202e-02 -3.025626266566326e-02
1.066925991125021e-02 8.919353414955689e-02 -5.063130445286550e-03
-7.355491546547858e-03 3.748676520365299e-02 -1.640085094842316e-03
3.142216312888994e-03 5.578642182666917e-02 -1.820395589446449e-03
4.103433431481085e-02 1.119767118893874e-01 -5.408659252417260e-03
6.979422010719233e-02 1.044934279571677e-01 -1.747235971291415e-02
1.172896865868184e-02 3.549385180473627e-02 -8.479957214074694e-03
6.441938336008180e-03 1.419039299015583e-02 -8.430951117118297e-03
4.799152050571248e-02 6.714089896544810e-02 -1.855376981200605e-02
3.183885840664501e-02 2.741924354598859e-02 -1.313610092737617e-02