<?xml version="1.0" ?> 
<!-- 
# vtk DataFile Version 3.0
-->
<VTKFile type="UnstructuredGrid" version="0.1" compressor="vtkZLibDataCompressor" byte_order="LittleEndian">
  <UnstructuredGrid>
    <FieldData>
      <DataArray type="Float64" Name="TIME" NumberOfTuples="1" format="ascii">
5.000000000000000e-01 
      </DataArray>
    </FieldData>

    <Piece NumberOfPoints="336" NumberOfCells="42" >
      <Points>
        <DataArray type="Float64" NumberOfComponents="3" format="ascii">
2.828427124746190e+02 -2.828427124746190e+02 -5.000000000000000e+00
2.828427124746189e+02 -2.828427124746191e+02 5.000000000000000e+00
2.626396615835747e+02 -2.626396615835749e+02 5.000000000000000e+00
2.626396615835748e+02 -2.626396615835748e+02 -5.000000000000000e+00
2.435045716034883e+02 -3.173413361164941e+02 -5.000000000000000e+00
2.435045716034882e+02 -3.173413361164941e+02 5.000000000000000e+00
2.261113879175247e+02 -2.946740978224587e+02 5.000000000000000e+00
2.261113879175248e+02 -2.946740978224588e+02 -5.000000000000000e+00
2.626396615835748e+02 -2.626396615835748e+02 -5.000000000000000e+00
2.626396615835747e+02 -2.626396615835749e+02 5.000000000000000e+00
2.424366106925305e+02 -2.424366106925306e+02 5.000000000000000e+00
2.424366106925306e+02 -2.424366106925306e+02 -5.000000000000000e+00
2.261113879175248e+02 -2.946740978224588e+02 -5.000000000000000e+00
2.261113879175247e+02 -2.946740978224587e+02 5.000000000000000e+00
2.087182042315613e+02 -2.720068595284235e+02 5.000000000000000e+00
2.087182042315614e+02 -2.720068595284235e+02 -5.000000000000000e+00
2.424366106925306e+02 -2.424366106925306e+02 -5.000000000000000e+00
2.424366106925305e+02 -2.424366106925306e+02 5.000000000000000e+00
2.222335598014863e+02 -2.222335598014863e+02 5.000000000000000e+00
2.222335598014863e+02 -2.222335598014863e+02 -5.000000000000000e+00
2.087182042315614e+02 -2.720068595284235e+02 -5.000000000000000e+00
2.087182042315613e+02 -2.720068595284235e+02 5.000000000000000e+00
1.913250205455978e+02 -2.493396212343882e+02 5.000000000000000e+00
1.913250205455979e+02 -2.493396212343882e+02 -5.000000000000000e+00
2.222335598014863e+02 -2.222335598014863e+02 -5.000000000000000e+00
2.222335598014863e+02 -2.222335598014863e+02 5.000000000000000e+00
2.020305089104421e+02 -2.020305089104422e+02 5.000000000000000e+00
2.020305089104421e+02 -2.020305089104422e+02 -5.000000000000000e+00
1.913250205455979e+02 -2.493396212343882e+02 -5.000000000000000e+00
1.913250205455978e+02 -2.493396212343882e+02 5.000000000000000e+00
1.739318368596345e+02 -2.266723829403529e+02 5.000000000000000e+00
1.739318368596344e+02 -2.266723829403529e+02 -5.000000000000000e+00
2.020305089104421e+02 -2.020305089104422e+02 -5.000000000000000e+00
2.020305089104421e+02 -2.020305089104422e+02 5.000000000000000e+00
1.818274580193979e+02 -1.818274580193979e+02 5.000000000000000e+00
1.818274580193979e+02 -1.818274580193979e+02 -5.000000000000000e+00
1.739318368596344e+02 -2.266723829403529e+02 -5.000000000000000e+00
1.739318368596345e+02 -2.266723829403529e+02 5.000000000000000e+00
1.565386531736710e+02 -2.040051446463176e+02 5.000000000000000e+00
1.565386531736710e+02 -2.040051446463176e+02 -5.000000000000000e+00
1.818274580193979e+02 -1.818274580193979e+02 -5.000000000000000e+00
1.818274580193979e+02 -1.818274580193979e+02 5.000000000000000e+00
1.616244071283537e+02 -1.616244071283538e+02 5.000000000000000e+00
1.616244071283537e+02 -1.616244071283537e+02 -5.000000000000000e+00
1.565386531736710e+02 -2.040051446463176e+02 -5.000000000000000e+00
1.565386531736710e+02 -2.040051446463176e+02 5.000000000000000e+00
1.391454694877076e+02 -1.813379063522823e+02 5.000000000000000e+00
1.391454694877075e+02 -1.813379063522823e+02 -5.000000000000000e+00
1.616244071283537e+02 -1.616244071283537e+02 -5.000000000000000e+00
1.616244071283537e+02 -1.616244071283538e+02 5.000000000000000e+00
1.414213562373095e+02 -1.414213562373095e+02 5.000000000000000e+00
1.414213562373095e+02 -1.414213562373095e+02 -5.000000000000000e+00
1.391454694877075e+02 -1.813379063522823e+02 -5.000000000000000e+00
1.391454694877076e+02 -1.813379063522823e+02 5.000000000000000e+00
1.217522858017441e+02 -1.586706680582470e+02 5.000000000000000e+00
1.217522858017441e+02 -1.586706680582470e+02 -5.000000000000000e+00
2.435045716034883e+02 -3.173413361164941e+02 -5.000000000000000e+00
2.435045716034882e+02 -3.173413361164941e+02 5.000000000000000e+00
2.261113879175247e+02 -2.946740978224587e+02 5.000000000000000e+00
2.261113879175248e+02 -2.946740978224588e+02 -5.000000000000000e+00
1.999999999999999e+02 -3.464101615137754e+02 -5.000000000000000e+00
2.000000000000000e+02 -3.464101615137754e+02 5.000000000000000e+00
1.857142857142857e+02 -3.216665785485058e+02 5.000000000000000e+00
1.857142857142857e+02 -3.216665785485058e+02 -5.000000000000000e+00
2.261113879175248e+02 -2.946740978224588e+02 -5.000000000000000e+00
2.261113879175247e+02 -2.946740978224587e+02 5.000000000000000e+00
2.087182042315613e+02 -2.720068595284235e+02 5.000000000000000e+00
2.087182042315614e+02 -2.720068595284235e+02 -5.000000000000000e+00
1.857142857142857e+02 -3.216665785485058e+02 -5.000000000000000e+00
1.857142857142857e+02 -3.216665785485058e+02 5.000000000000000e+00
1.714285714285714e+02 -2.969229955832361e+02 5.000000000000000e+00
1.714285714285714e+02 -2.969229955832361e+02 -5.000000000000000e+00
2.087182042315614e+02 -2.720068595284235e+02 -5.000000000000000e+00
2.087182042315613e+02 -2.720068595284235e+02 5.000000000000000e+00
1.913250205455978e+02 -2.493396212343882e+02 5.000000000000000e+00
1.913250205455979e+02 -2.493396212343882e+02 -5.000000000000000e+00
1.714285714285714e+02 -2.969229955832361e+02 -5.000000000000000e+00
1.714285714285714e+02 -2.969229955832361e+02 5.000000000000000e+00
1.571428571428571e+02 -2.721794126179664e+02 5.000000000000000e+00
1.571428571428571e+02 -2.721794126179664e+02 -5.000000000000000e+00
1.913250205455979e+02 -2.493396212343882e+02 -5.000000000000000e+00
1.913250205455978e+02 -2.493396212343882e+02 5.000000000000000e+00
1.739318368596345e+02 -2.266723829403529e+02 5.000000000000000e+00
1.739318368596344e+02 -2.266723829403529e+02 -5.000000000000000e+00
1.571428571428571e+02 -2.721794126179664e+02 -5.000000000000000e+00
1.571428571428571e+02 -2.721794126179664e+02 5.000000000000000e+00
1.428571428571428e+02 -2.474358296526968e+02 5.000000000000000e+00
1.428571428571428e+02 -2.474358296526967e+02 -5.000000000000000e+00
1.739318368596344e+02 -2.266723829403529e+02 -5.000000000000000e+00
1.739318368596345e+02 -2.266723829403529e+02 5.000000000000000e+00
1.565386531736710e+02 -2.040051446463176e+02 5.000000000000000e+00
1.565386531736710e+02 -2.040051446463176e+02 -5.000000000000000e+00
1.428571428571428e+02 -2.474358296526967e+02 -5.000000000000000e+00
1.428571428571428e+02 -2.474358296526968e+02 5.000000000000000e+00
1.285714285714285e+02 -2.226922466874271e+02 5.000000000000000e+00
1.285714285714286e+02 -2.226922466874270e+02 -5.000000000000000e+00
1.565386531736710e+02 -2.040051446463176e+02 -5.000000000000000e+00
1.565386531736710e+02 -2.040051446463176e+02 5.000000000000000e+00
1.391454694877076e+02 -1.813379063522823e+02 5.000000000000000e+00
1.391454694877075e+02 -1.813379063522823e+02 -5.000000000000000e+00
1.285714285714286e+02 -2.226922466874270e+02 -5.000000000000000e+00
1.285714285714285e+02 -2.226922466874271e+02 5.000000000000000e+00
1.142857142857142e+02 -1.979486637221574e+02 5.000000000000000e+00
1.142857142857143e+02 -1.979486637221574e+02 -5.000000000000000e+00
1.391454694877075e+02 -1.813379063522823e+02 -5.000000000000000e+00
1.391454694877076e+02 -1.813379063522823e+02 5.000000000000000e+00
1.217522858017441e+02 -1.586706680582470e+02 5.000000000000000e+00
1.217522858017441e+02 -1.586706680582470e+02 -5.000000000000000e+00
1.142857142857143e+02 -1.979486637221574e+02 -5.000000000000000e+00
1.142857142857142e+02 -1.979486637221574e+02 5.000000000000000e+00
9.999999999999997e+01 -1.732050807568877e+02 5.000000000000000e+00
1.000000000000000e+02 -1.732050807568877e+02 -5.000000000000000e+00
1.999999999999999e+02 -3.464101615137754e+02 -5.000000000000000e+00
2.000000000000000e+02 -3.464101615137754e+02 5.000000000000000e+00
1.857142857142857e+02 -3.216665785485058e+02 5.000000000000000e+00
1.857142857142857e+02 -3.216665785485058e+02 -5.000000000000000e+00
1.530733729460358e+02 -3.695518130045147e+02 -5.000000000000000e+00
1.530733729460360e+02 -3.695518130045146e+02 5.000000000000000e+00
1.421395605927477e+02 -3.431552549327636e+02 5.000000000000000e+00
1.421395605927476e+02 -3.431552549327637e+02 -5.000000000000000e+00
1.857142857142857e+02 -3.216665785485058e+02 -5.000000000000000e+00
1.857142857142857e+02 -3.216665785485058e+02 5.000000000000000e+00
1.714285714285714e+02 -2.969229955832361e+02 5.000000000000000e+00
1.714285714285714e+02 -2.969229955832361e+02 -5.000000000000000e+00
1.421395605927476e+02 -3.431552549327637e+02 -5.000000000000000e+00
1.421395605927477e+02 -3.431552549327636e+02 5.000000000000000e+00
1.312057482394594e+02 -3.167586968610125e+02 5.000000000000000e+00
1.312057482394593e+02 -3.167586968610125e+02 -5.000000000000000e+00
1.714285714285714e+02 -2.969229955832361e+02 -5.000000000000000e+00
1.714285714285714e+02 -2.969229955832361e+02 5.000000000000000e+00
1.571428571428571e+02 -2.721794126179664e+02 5.000000000000000e+00
1.571428571428571e+02 -2.721794126179664e+02 -5.000000000000000e+00
1.312057482394593e+02 -3.167586968610125e+02 -5.000000000000000e+00
1.312057482394594e+02 -3.167586968610125e+02 5.000000000000000e+00
1.202719358861711e+02 -2.903621387892615e+02 5.000000000000000e+00
1.202719358861711e+02 -2.903621387892616e+02 -5.000000000000000e+00
1.571428571428571e+02 -2.721794126179664e+02 -5.000000000000000e+00
1.571428571428571e+02 -2.721794126179664e+02 5.000000000000000e+00
1.428571428571428e+02 -2.474358296526968e+02 5.000000000000000e+00
1.428571428571428e+02 -2.474358296526967e+02 -5.000000000000000e+00
[...]
  <PointData>
        <DataArray type="Float64" Name="accumulated_plastic_strain" format="ascii">
9.791399721366592e-03
9.805215227718558e-03
5.319490429296903e-03
5.314186636928245e-03
1.057016756943807e-02
1.058373016180020e-02
5.618865310103471e-03
5.613399392626181e-03
5.314186636928245e-03
5.319490429296903e-03
6.150406300656072e-03
6.144934126861495e-03
5.613399392626181e-03
5.618865310103471e-03
6.353813975057767e-03
6.348007290969069e-03
6.144934126861495e-03
6.150406300656072e-03
7.574467784447193e-03
7.565052466296767e-03
6.348007290969069e-03
6.353813975057767e-03
7.750597176548332e-03
7.740275671965396e-03
7.565052466296767e-03
7.574467784447193e-03
1.005236394621965e-02
1.002297144948282e-02
7.740275671965396e-03
7.750597176548332e-03
1.036114627132188e-02
1.033028238529036e-02
1.002297144948282e-02
1.005236394621965e-02
1.547169679793244e-02
1.529139463321898e-02
1.033028238529036e-02
1.036114627132188e-02
1.598268618934861e-02
1.580726812835221e-02
1.529139463321898e-02
1.547169679793244e-02
2.770730731324401e-02
2.766255018539561e-02
1.580726812835221e-02
1.598268618934861e-02
2.795801280499557e-02
2.791586603895914e-02
2.766255018539561e-02
2.770730731324401e-02
8.238455462359093e-02
8.294322257328685e-02
2.791586603895914e-02
2.795801280499557e-02
8.166956838559947e-02
8.221581272018294e-02
1.057016756943807e-02
1.058373016180020e-02
5.618865310103471e-03
5.613399392626181e-03
1.279991059495541e-02
1.281150717633365e-02
6.569442768488708e-03
6.563839342897932e-03
5.613399392626181e-03
5.618865310103471e-03
6.353813975057767e-03
6.348007290969069e-03
6.563839342897932e-03
6.569442768488708e-03
7.156327354358156e-03
7.149986765968574e-03
6.348007290969069e-03
6.353813975057767e-03
7.750597176548332e-03
7.740275671965396e-03
7.149986765968574e-03
7.156327354358156e-03
8.580621488159209e-03
8.568780586405637e-03
7.740275671965396e-03
7.750597176548332e-03
1.036114627132188e-02
1.033028238529036e-02
8.568780586405637e-03
8.580621488159209e-03
1.149979417551237e-02
1.146766350108583e-02
1.033028238529036e-02
1.036114627132188e-02
1.598268618934861e-02
1.580726812835221e-02
1.146766350108583e-02
1.149979417551237e-02
1.737700682701391e-02
1.722070140983376e-02
1.580726812835221e-02
1.598268618934861e-02
2.795801280499557e-02
2.791586603895914e-02
1.722070140983376e-02
1.737700682701391e-02
2.847062904374020e-02
2.844037590742224e-02
2.791586603895914e-02
2.795801280499557e-02
8.166956838559947e-02
8.221581272018294e-02
2.844037590742224e-02
2.847062904374020e-02
7.967987893413640e-02
8.018152594392960e-02
1.279991059495541e-02
1.281150717633365e-02
6.569442768488708e-03
6.563839342897932e-03
1.585872731650378e-02
1.586111181081666e-02
8.150221019788767e-03
8.146872970558936e-03
6.563839342897932e-03
6.569442768488708e-03
7.156327354358156e-03
7.149986765968574e-03
8.146872970558936e-03
8.150221019788767e-03
8.889275630428574e-03
8.881810386043203e-03
7.149986765968574e-03
7.156327354358156e-03
8.580621488159209e-03
8.568780586405637e-03
8.881810386043203e-03
8.889275630428574e-03
1.057543926102842e-02
1.056065546717578e-02
8.568780586405637e-03
8.580621488159209e-03
1.149979417551237e-02
1.146766350108583e-02
1.056065546717578e-02
1.057543926102842e-02
1.369568880903704e-02
1.366273485588112e-02
1.146766350108583e-02
1.149979417551237e-02
1.737700682701391e-02
1.722070140983376e-02
1.366273485588112e-02
1.369568880903704e-02
1.925276495307223e-02
1.912232542499027e-02
1.722070140983376e-02
1.737700682701391e-02
2.847062904374020e-02
2.844037590742224e-02
1.912232542499027e-02
1.925276495307223e-02
2.881328194221406e-02
2.880128326969181e-02
2.844037590742224e-02
2.847062904374020e-02
7.967987893413640e-02
8.018152594392960e-02
2.880128326969181e-02
2.881328194221406e-02
7.693287695340921e-02
7.737201903369396e-02
1.585872731650378e-02
1.586111181081666e-02
8.150221019788767e-03
8.146872970558936e-03
1.838918271167835e-02
1.838070284033465e-02
1.007281043806322e-02
1.007488794626961e-02
8.146872970558936e-03
8.150221019788767e-03
8.889275630428574e-03
8.881810386043203e-03
1.007488794626961e-02
1.007281043806322e-02
1.153955030374390e-02
1.153396469300131e-02
8.881810386043203e-03
8.889275630428574e-03
1.057543926102842e-02
1.056065546717578e-02
1.153396469300131e-02
1.153955030374390e-02
1.369991695507509e-02
1.368469741288415e-02
1.056065546717578e-02
1.057543926102842e-02
1.369568880903704e-02
1.366273485588112e-02
1.368469741288415e-02
1.369991695507509e-02
1.669820424615707e-02
1.666799358434156e-02
1.366273485588112e-02
1.369568880903704e-02
1.925276495307223e-02
1.912232542499027e-02
1.666799358434156e-02
1.669820424615707e-02
2.115696267359620e-02
2.105191736815061e-02
1.912232542499027e-02
1.925276495307223e-02
2.881328194221406e-02
2.880128326969181e-02
2.105191736815061e-02
2.115696267359620e-02
2.871072791601953e-02
2.871398128522619e-02
2.880128326969181e-02
2.881328194221406e-02
7.693287695340921e-02
7.737201903369396e-02
2.871398128522619e-02
2.871072791601953e-02
7.380458459947875e-02
7.417205386542469e-02
1.838918271167835e-02
1.838070284033465e-02
1.007281043806322e-02
1.007488794626961e-02
1.912432985303747e-02
1.911601555570332e-02
1.151500348488113e-02
1.151938108003602e-02
1.007488794626961e-02
1.007281043806322e-02
1.153955030374390e-02
1.153396469300131e-02
1.151938108003602e-02
1.151500348488113e-02
1.402632090808099e-02
1.402639459183647e-02
1.153396469300131e-02
1.153955030374390e-02
1.369991695507509e-02
1.368469741288415e-02
1.402639459183647e-02
1.402632090808099e-02
1.665441857016752e-02
1.664871764713923e-02
1.368469741288415e-02
1.369991695507509e-02
1.669820424615707e-02
1.666799358434156e-02
1.664871764713923e-02
1.665441857016752e-02
1.939600790543465e-02
1.938543740620549e-02
1.666799358434156e-02
1.669820424615707e-02
2.115696267359620e-02
2.105191736815061e-02
1.938543740620549e-02
1.939600790543465e-02
2.264283235863754e-02
2.257719883004707e-02
2.105191736815061e-02
2.115696267359620e-02
2.871072791601953e-02
2.871398128522619e-02
2.257719883004707e-02
2.264283235863754e-02
2.819954220733523e-02
2.824112384689267e-02
2.871398128522619e-02
2.871072791601953e-02
7.380458459947875e-02
7.417205386542469e-02
2.824112384689267e-02
2.819954220733523e-02
7.024745362567543e-02
7.056554609325097e-02
1.912432985303747e-02
1.911601555570332e-02
1.151500348488113e-02
1.151938108003602e-02
3.800423718149516e-02
3.799861184704371e-02
2.388891045730500e-02
2.389454452685490e-02
1.151938108003602e-02
1.151500348488113e-02
1.402632090808099e-02
1.402639459183647e-02
2.389454452685490e-02
2.388891045730500e-02
2.979283181219923e-02
2.979847434286012e-02
1.402639459183647e-02
1.402632090808099e-02
1.665441857016752e-02
1.664871764713923e-02
2.979847434286012e-02
2.979283181219923e-02
3.528471647252047e-02
3.529104342340882e-02
1.664871764713923e-02
1.665441857016752e-02
1.939600790543465e-02
1.938543740620549e-02
3.529104342340882e-02
3.528471647252047e-02
4.040037541617360e-02
4.041434990835296e-02
1.938543740620549e-02
1.939600790543465e-02
2.264283235863754e-02
2.257719883004707e-02
4.041434990835296e-02
4.040037541617360e-02
4.597741662952793e-02
4.589968663405355e-02
2.257719883004707e-02
2.264283235863754e-02
2.819954220733523e-02
2.824112384689267e-02
4.589968663405355e-02
4.597741662952793e-02
5.528197167012697e-02
5.542697239197424e-02
2.824112384689267e-02
2.819954220733523e-02
7.024745362567543e-02
7.056554609325097e-02
5.542697239197424e-02
5.528197167012697e-02
1.352491905436281e-01
1.358646223737459e-01
        </DataArray>
        <DataArray type="Float64" Name="displacement" NumberOfComponents="3" format="ascii">
-1.061144185103225e+01 1.073068201605530e+01 0.000000000000000e+00
-1.061127440718893e+01 1.073043160314151e+01 1.296815231204059e-01
-1.082066716470511e+01 1.092310141326915e+01 1.308846510190739e-01
-1.082054827424607e+01 1.092309109595944e+01 0.000000000000000e+00
-9.669041272841399e+00 1.145561256329135e+01 0.000000000000000e+00
-9.668010677464078e+00 1.145669344015617e+01 1.373514602311258e-01
-9.875426272432392e+00 1.167995968372925e+01 1.353763590010102e-01
-9.875785012325137e+00 1.167878396053081e+01 0.000000000000000e+00
-1.082054827424607e+01 1.092309109595944e+01 0.000000000000000e+00
-1.082066716470511e+01 1.092310141326915e+01 1.308846510190739e-01
-1.109604166275995e+01 1.118093214759366e+01 1.296584069027687e-01
-1.109597341981577e+01 1.118098771294723e+01 0.000000000000000e+00
-9.875785012325137e+00 1.167878396053081e+01 0.000000000000000e+00
-9.875426272432392e+00 1.167995968372925e+01 1.353763590010102e-01
-1.011534324766338e+01 1.198728433135564e+01 1.305127720813677e-01
-1.011520834265595e+01 1.198667492286172e+01 0.000000000000000e+00
-1.109597341981577e+01 1.118098771294723e+01 0.000000000000000e+00
-1.109604166275995e+01 1.118093214759366e+01 1.296584069027687e-01
-1.147149327752402e+01 1.153784034285658e+01 1.275673011881849e-01
-1.147003706170785e+01 1.153651806899266e+01 0.000000000000000e+00
-1.011520834265595e+01 1.198667492286172e+01 0.000000000000000e+00
-1.011534324766338e+01 1.198728433135564e+01 1.305127720813677e-01
-1.041832274416223e+01 1.241685308339117e+01 1.265745472704739e-01
-1.041696152562656e+01 1.241529298219573e+01 0.000000000000000e+00
-1.147003706170785e+01 1.153651806899266e+01 0.000000000000000e+00
-1.147149327752402e+01 1.153784034285658e+01 1.275673011881849e-01
-1.201079982490174e+01 1.205814544967247e+01 1.051686260080037e-01
-1.200776354962490e+01 1.205525634765667e+01 0.000000000000000e+00
-1.041696152562656e+01 1.241529298219573e+01 0.000000000000000e+00
-1.041832274416223e+01 1.241685308339117e+01 1.265745472704739e-01
-1.083633240955313e+01 1.305327440550081e+01 1.048370246994914e-01
-1.083398084560708e+01 1.304996465339924e+01 0.000000000000000e+00
-1.200776354962490e+01 1.205525634765667e+01 0.000000000000000e+00
-1.201079982490174e+01 1.205814544967247e+01 1.051686260080037e-01
-1.283799609891020e+01 1.286690876911657e+01 6.721570607641376e-02
-1.282848863303157e+01 1.285752036714497e+01 0.000000000000000e+00
-1.083398084560708e+01 1.304996465339924e+01 0.000000000000000e+00
-1.083633240955313e+01 1.305327440550081e+01 1.048370246994914e-01
-1.145682633393827e+01 1.408217242650875e+01 6.723986866346029e-02
-1.144848542894790e+01 1.407169750970921e+01 0.000000000000000e+00
-1.282848863303157e+01 1.285752036714497e+01 0.000000000000000e+00
-1.283799609891020e+01 1.286690876911657e+01 6.721570607641376e-02
-1.440712167025115e+01 1.441947861447248e+01 -1.674473892962021e-01
-1.435564903840286e+01 1.436851850376951e+01 0.000000000000000e+00
-1.144848542894790e+01 1.407169750970921e+01 0.000000000000000e+00
-1.145682633393827e+01 1.408217242650875e+01 6.723986866346029e-02
-1.261734311513568e+01 1.604583747185377e+01 -1.618880536539160e-01
-1.257856548021459e+01 1.598754743679624e+01 0.000000000000000e+00
-1.435564903840286e+01 1.436851850376951e+01 0.000000000000000e+00
-1.440712167025115e+01 1.441947861447248e+01 -1.674473892962021e-01
-1.767766952966369e+01 1.767766952966369e+01 -6.959445123755331e-01
-1.767766952966368e+01 1.767766952966369e+01 0.000000000000000e+00
-1.257856548021459e+01 1.598754743679624e+01 0.000000000000000e+00
-1.261734311513568e+01 1.604583747185377e+01 -1.618880536539160e-01
-1.521903572521802e+01 1.983383350728088e+01 -6.610690995500177e-01
-1.521903572521801e+01 1.983383350728088e+01 0.000000000000000e+00
-9.669041272841399e+00 1.145561256329135e+01 0.000000000000000e+00
-9.668010677464078e+00 1.145669344015617e+01 1.373514602311258e-01
-9.875426272432392e+00 1.167995968372925e+01 1.353763590010102e-01
-9.875785012325137e+00 1.167878396053081e+01 0.000000000000000e+00
-8.412418001799368e+00 1.199268510437384e+01 0.000000000000000e+00
-8.410713644751864e+00 1.199533097897479e+01 1.598816320701074e-01
-8.680841736862495e+00 1.225834392012600e+01 1.505164448944223e-01
-8.681595923400561e+00 1.225532101755208e+01 0.000000000000000e+00
-9.875785012325137e+00 1.167878396053081e+01 0.000000000000000e+00
-9.875426272432392e+00 1.167995968372925e+01 1.353763590010102e-01
-1.011534324766338e+01 1.198728433135564e+01 1.305127720813677e-01
-1.011520834265595e+01 1.198667492286172e+01 0.000000000000000e+00
-8.681595923400561e+00 1.225532101755208e+01 0.000000000000000e+00
-8.680841736862495e+00 1.225834392012600e+01 1.505164448944223e-01
-8.938923949966515e+00 1.261677615396170e+01 1.367120695269282e-01
-8.939161138326023e+00 1.261452125443900e+01 0.000000000000000e+00
-1.011520834265595e+01 1.198667492286172e+01 0.000000000000000e+00
-1.011534324766338e+01 1.198728433135564e+01 1.305127720813677e-01
-1.041832274416223e+01 1.241685308339117e+01 1.265745472704739e-01
-1.041696152562656e+01 1.241529298219573e+01 0.000000000000000e+00
-8.939161138326023e+00 1.261452125443900e+01 0.000000000000000e+00
-8.938923949966515e+00 1.261677615396170e+01 1.367120695269282e-01
-9.196796406924795e+00 1.312708234156773e+01 1.291298355100004e-01
-9.196700909250085e+00 1.312474650510048e+01 0.000000000000000e+00
-1.041696152562656e+01 1.241529298219573e+01 0.000000000000000e+00
-1.041832274416223e+01 1.241685308339117e+01 1.265745472704739e-01
-1.083633240955313e+01 1.305327440550081e+01 1.048370246994914e-01
-1.083398084560708e+01 1.304996465339924e+01 0.000000000000000e+00
-9.196700909250085e+00 1.312474650510048e+01 0.000000000000000e+00
-9.196796406924795e+00 1.312708234156773e+01 1.291298355100004e-01
-9.480020745520076e+00 1.391596272608860e+01 1.094429887384068e-01
-9.479533255039573e+00 1.391192077196054e+01 0.000000000000000e+00
-1.083398084560708e+01 1.304996465339924e+01 0.000000000000000e+00
-1.083633240955313e+01 1.305327440550081e+01 1.048370246994914e-01
-1.145682633393827e+01 1.408217242650875e+01 6.723986866346029e-02
-1.144848542894790e+01 1.407169750970921e+01 0.000000000000000e+00
-9.479533255039573e+00 1.391192077196054e+01 0.000000000000000e+00
-9.480020745520076e+00 1.391596272608860e+01 1.094429887384068e-01
-9.854502492146015e+00 1.521955146949802e+01 7.155712677369444e-02
-9.848719690071588e+00 1.520756120727067e+01 0.000000000000000e+00
-1.144848542894790e+01 1.407169750970921e+01 0.000000000000000e+00
-1.145682633393827e+01 1.408217242650875e+01 6.723986866346029e-02
-1.261734311513568e+01 1.604583747185377e+01 -1.618880536539160e-01
-1.257856548021459e+01 1.598754743679624e+01 0.000000000000000e+00
-9.848719690071588e+00 1.520756120727067e+01 0.000000000000000e+00
-9.854502492146015e+00 1.521955146949802e+01 7.155712677369444e-02
-1.059074789786357e+01 1.756083047745150e+01 -1.421999544732176e-01
-1.056766792836901e+01 1.750159211881363e+01 0.000000000000000e+00
-1.257856548021459e+01 1.598754743679624e+01 0.000000000000000e+00
-1.261734311513568e+01 1.604583747185377e+01 -1.618880536539160e-01
-1.521903572521802e+01 1.983383350728088e+01 -6.610690995500177e-01
-1.521903572521801e+01 1.983383350728088e+01 0.000000000000000e+00
-1.056766792836901e+01 1.750159211881363e+01 0.000000000000000e+00
-1.059074789786357e+01 1.756083047745150e+01 -1.421999544732176e-01
-1.250000000000000e+01 2.165063509461097e+01 -5.707901781696960e-01
-1.250000000000000e+01 2.165063509461097e+01 0.000000000000000e+00
-8.412418001799368e+00 1.199268510437384e+01 0.000000000000000e+00
-8.410713644751864e+00 1.199533097897479e+01 1.598816320701074e-01
-8.680841736862495e+00 1.225834392012600e+01 1.505164448944223e-01
-8.681595923400561e+00 1.225532101755208e+01 0.000000000000000e+00
-6.702491419794196e+00 1.222100454273706e+01 0.000000000000000e+00
-6.700245361065443e+00 1.222464566268578e+01 1.924399165493094e-01
-7.108972971557729e+00 1.255916914761733e+01 1.766622961673815e-01
-7.110871964598685e+00 1.255469934455870e+01 0.000000000000000e+00
-8.681595923400561e+00 1.225532101755208e+01 0.000000000000000e+00
-8.680841736862495e+00 1.225834392012600e+01 1.505164448944223e-01
-8.938923949966515e+00 1.261677615396170e+01 1.367120695269282e-01
-8.939161138326023e+00 1.261452125443900e+01 0.000000000000000e+00
-7.110871964598685e+00 1.255469934455870e+01 0.000000000000000e+00
-7.108972971557729e+00 1.255916914761733e+01 1.766622961673815e-01
-7.449183157992755e+00 1.301698276087265e+01 1.567208331830970e-01
-7.451400697644096e+00 1.301323403786543e+01 0.000000000000000e+00
-8.939161138326023e+00 1.261452125443900e+01 0.000000000000000e+00
-8.938923949966515e+00 1.261677615396170e+01 1.367120695269282e-01
-9.196796406924795e+00 1.312708234156773e+01 1.291298355100004e-01
-9.196700909250085e+00 1.312474650510048e+01 0.000000000000000e+00
-7.451400697644096e+00 1.301323403786543e+01 0.000000000000000e+00
-7.449183157992755e+00 1.301698276087265e+01 1.567208331830970e-01
-7.698336803557182e+00 1.368587366927891e+01 1.470240143193838e-01
-7.700681672238100e+00 1.368244376500536e+01 0.000000000000000e+00
-9.196700909250085e+00 1.312474650510048e+01 0.000000000000000e+00
-9.196796406924795e+00 1.312708234156773e+01 1.291298355100004e-01
-9.480020745520076e+00 1.391596272608860e+01 1.094429887384068e-01
-9.479533255039573e+00 1.391192077196054e+01 0.000000000000000e+00
-7.700681672238100e+00 1.368244376500536e+01 0.000000000000000e+00
-7.698336803557182e+00 1.368587366927891e+01 1.470240143193838e-01
-7.846659151831045e+00 1.471412651655270e+01 1.261873885963439e-01
-7.847909402229448e+00 1.470907112168225e+01 0.000000000000000e+00
-9.479533255039573e+00 1.391192077196054e+01 0.000000000000000e+00
-9.480020745520076e+00 1.391596272608860e+01 1.094429887384068e-01
-9.854502492146015e+00 1.521955146949802e+01 7.155712677369444e-02
-9.848719690071588e+00 1.520756120727067e+01 0.000000000000000e+00
-7.847909402229448e+00 1.470907112168225e+01 0.000000000000000e+00
-7.846659151831045e+00 1.471412651655270e+01 1.261873885963439e-01
-7.950741566866921e+00 1.632275973466823e+01 8.641227931041937e-02
-7.947482347528640e+00 1.631010639111927e+01 0.000000000000000e+00
-9.848719690071588e+00 1.520756120727067e+01 0.000000000000000e+00
-9.854502492146015e+00 1.521955146949802e+01 7.155712677369444e-02
-1.059074789786357e+01 1.756083047745150e+01 -1.421999544732176e-01
-1.056766792836901e+01 1.750159211881363e+01 0.000000000000000e+00
-7.947482347528640e+00 1.631010639111927e+01 0.000000000000000e+00
-7.950741566866921e+00 1.632275973466823e+01 8.641227931041937e-02
-8.278381407345847e+00 1.892723435421954e+01 -1.046636907624593e-01
-8.268856680848685e+00 1.887213711956863e+01 0.000000000000000e+00
-1.056766792836901e+01 1.750159211881363e+01 0.000000000000000e+00
-1.059074789786357e+01 1.756083047745150e+01 -1.421999544732176e-01
-1.250000000000000e+01 2.165063509461097e+01 -5.707901781696960e-01
-1.250000000000000e+01 2.165063509461097e+01 0.000000000000000e+00
-8.268856680848685e+00 1.887213711956863e+01 0.000000000000000e+00
-8.278381407345847e+00 1.892723435421954e+01 -1.046636907624593e-01
-9.567085809127240e+00 2.309698831278217e+01 -4.607786485239261e-01
-9.567085809127249e+00 2.309698831278217e+01 0.000000000000000e+00
-6.702491419794196e+00 1.222100454273706e+01 0.000000000000000e+00
-6.700245361065443e+00 1.222464566268578e+01 1.924399165493094e-01
-7.108972971557729e+00 1.255916914761733e+01 1.766622961673815e-01
-7.110871964598685e+00 1.255469934455870e+01 0.000000000000000e+00
-4.533877924139409e+00 1.199410340773676e+01 0.000000000000000e+00
-4.532310724494169e+00 1.199581299490349e+01 2.217619520895658e-01
-5.064832362605012e+00 1.247887766275300e+01 2.129502863967069e-01
-5.068120964078620e+00 1.247579127281518e+01 0.000000000000000e+00
-7.110871964598685e+00 1.255469934455870e+01 0.000000000000000e+00
-7.108972971557729e+00 1.255916914761733e+01 1.766622961673815e-01
-7.449183157992755e+00 1.301698276087265e+01 1.567208331830970e-01
-7.451400697644096e+00 1.301323403786543e+01 0.000000000000000e+00
-5.068120964078620e+00 1.247579127281518e+01 0.000000000000000e+00
-5.064832362605012e+00 1.247887766275300e+01 2.129502863967069e-01
-5.475208724311960e+00 1.315225112863775e+01 1.986656563083308e-01
-5.480804940685319e+00 1.314854972928308e+01 0.000000000000000e+00