<?xml version="1.0" ?> 
<!-- 
# vtk DataFile Version 3.0
-->
<VTKFile type="UnstructuredGrid" version="0.1" compressor="vtkZLibDataCompressor" byte_order="LittleEndian">
  <UnstructuredGrid>
    <FieldData>
      <DataArray type="Float64" Name="TIME" NumberOfTuples="1" format="ascii">
1
      </DataArray>
    </FieldData>

    <Piece NumberOfPoints="160" NumberOfCells="20" >
      <Points>
        <DataArray type="Float64" NumberOfComponents="3" format="ascii">
-2.500000000000000e+00 1.000000000000000e+00 1.000000000000000e-01
-2.500000000000000e+00 1.000000000000000e+00 5.000000000000000e-02
-2.500000000000000e+00 2.000000000000000e+00 5.000000000000000e-02
-2.500000000000000e+00 2.000000000000000e+00 1.000000000000000e-01
-2.000000000000000e+00 1.000000000000000e+00 1.000000000000000e-01
-2.000000000000000e+00 1.000000000000000e+00 5.000000000000000e-02
-2.000000000000000e+00 2.000000000000000e+00 5.000000000000001e-02
-2.000000000000000e+00 2.000000000000000e+00 1.000000000000000e-01
-2.500000000000000e+00 1.000000000000000e+00 5.000000000000000e-02
-2.500000000000000e+00 1.000000000000000e+00 0.000000000000000e+00
-2.500000000000000e+00 2.000000000000000e+00 0.000000000000000e+00
-2.500000000000000e+00 2.000000000000000e+00 5.000000000000000e-02
-2.000000000000000e+00 1.000000000000000e+00 5.000000000000000e-02
-2.000000000000000e+00 1.000000000000000e+00 3.469446951953614e-18
-2.000000000000000e+00 2.000000000000000e+00 0.000000000000000e+00
-2.000000000000000e+00 2.000000000000000e+00 5.000000000000001e-02
-2.500000000000000e+00 1.000000000000000e+00 0.000000000000000e+00
-2.500000000000000e+00 1.000000000000000e+00 -5.000000000000002e-02
-2.500000000000000e+00 2.000000000000000e+00 -5.000000000000002e-02
-2.500000000000000e+00 2.000000000000000e+00 0.000000000000000e+00
-2.000000000000000e+00 1.000000000000000e+00 3.469446951953614e-18
-2.000000000000000e+00 1.000000000000000e+00 -5.000000000000001e-02
-2.000000000000000e+00 2.000000000000000e+00 -5.000000000000000e-02
-2.000000000000000e+00 2.000000000000000e+00 0.000000000000000e+00
-2.500000000000000e+00 1.000000000000000e+00 -5.000000000000002e-02
-2.500000000000000e+00 1.000000000000000e+00 -1.000000000000000e-01
-2.500000000000000e+00 2.000000000000000e+00 -1.000000000000000e-01
-2.500000000000000e+00 2.000000000000000e+00 -5.000000000000002e-02
-2.000000000000000e+00 1.000000000000000e+00 -5.000000000000001e-02
-2.000000000000000e+00 1.000000000000000e+00 -1.000000000000000e-01
-2.000000000000000e+00 2.000000000000000e+00 -1.000000000000000e-01
-2.000000000000000e+00 2.000000000000000e+00 -5.000000000000000e-02
-2.000000000000000e+00 1.000000000000000e+00 1.000000000000000e-01
-2.000000000000000e+00 1.000000000000000e+00 5.000000000000000e-02
-2.000000000000000e+00 2.000000000000000e+00 5.000000000000001e-02
-2.000000000000000e+00 2.000000000000000e+00 1.000000000000000e-01
-1.500000000000000e+00 1.000000000000000e+00 1.000000000000000e-01
-1.500000000000000e+00 1.000000000000000e+00 5.000000000000003e-02
-1.500000000000000e+00 2.000000000000000e+00 5.000000000000000e-02
-1.500000000000000e+00 2.000000000000000e+00 1.000000000000000e-01
-2.000000000000000e+00 1.000000000000000e+00 5.000000000000000e-02
-2.000000000000000e+00 1.000000000000000e+00 3.469446951953614e-18
-2.000000000000000e+00 2.000000000000000e+00 0.000000000000000e+00
-2.000000000000000e+00 2.000000000000000e+00 5.000000000000001e-02
-1.500000000000000e+00 1.000000000000000e+00 5.000000000000003e-02
-1.500000000000000e+00 1.000000000000000e+00 0.000000000000000e+00
-1.500000000000000e+00 2.000000000000000e+00 0.000000000000000e+00
-1.500000000000000e+00 2.000000000000000e+00 5.000000000000000e-02
-2.000000000000000e+00 1.000000000000000e+00 3.469446951953614e-18
-2.000000000000000e+00 1.000000000000000e+00 -5.000000000000001e-02
-2.000000000000000e+00 2.000000000000000e+00 -5.000000000000000e-02
-2.000000000000000e+00 2.000000000000000e+00 0.000000000000000e+00
-1.500000000000000e+00 1.000000000000000e+00 0.000000000000000e+00
-1.500000000000000e+00 1.000000000000000e+00 -5.000000000000002e-02
-1.500000000000000e+00 2.000000000000000e+00 -5.000000000000002e-02
-1.500000000000000e+00 2.000000000000000e+00 0.000000000000000e+00
-2.000000000000000e+00 1.000000000000000e+00 -5.000000000000001e-02
-2.000000000000000e+00 1.000000000000000e+00 -1.000000000000000e-01
-2.000000000000000e+00 2.000000000000000e+00 -1.000000000000000e-01
-2.000000000000000e+00 2.000000000000000e+00 -5.000000000000000e-02
-1.500000000000000e+00 1.000000000000000e+00 -5.000000000000002e-02
-1.500000000000000e+00 1.000000000000000e+00 -1.000000000000000e-01
-1.500000000000000e+00 2.000000000000000e+00 -1.000000000000000e-01
-1.500000000000000e+00 2.000000000000000e+00 -5.000000000000002e-02
-1.500000000000000e+00 1.000000000000000e+00 1.000000000000000e-01
-1.500000000000000e+00 1.000000000000000e+00 5.000000000000003e-02
-1.500000000000000e+00 2.000000000000000e+00 5.000000000000000e-02
-1.500000000000000e+00 2.000000000000000e+00 1.000000000000000e-01
-1.000000000000000e+00 1.000000000000000e+00 1.000000000000000e-01
-1.000000000000000e+00 1.000000000000000e+00 5.000000000000001e-02
-1.000000000000000e+00 2.000000000000000e+00 5.000000000000000e-02
-1.000000000000000e+00 2.000000000000000e+00 1.000000000000000e-01
-1.500000000000000e+00 1.000000000000000e+00 5.000000000000003e-02
-1.500000000000000e+00 1.000000000000000e+00 0.000000000000000e+00
-1.500000000000000e+00 2.000000000000000e+00 0.000000000000000e+00
-1.500000000000000e+00 2.000000000000000e+00 5.000000000000000e-02
-1.000000000000000e+00 1.000000000000000e+00 5.000000000000001e-02
-1.000000000000000e+00 1.000000000000000e+00 0.000000000000000e+00
-1.000000000000000e+00 2.000000000000000e+00 -6.938893903907228e-18
-1.000000000000000e+00 2.000000000000000e+00 5.000000000000000e-02
-1.500000000000000e+00 1.000000000000000e+00 0.000000000000000e+00
-1.500000000000000e+00 1.000000000000000e+00 -5.000000000000002e-02
-1.500000000000000e+00 2.000000000000000e+00 -5.000000000000002e-02
-1.500000000000000e+00 2.000000000000000e+00 0.000000000000000e+00
-1.000000000000000e+00 1.000000000000000e+00 0.000000000000000e+00
-1.000000000000000e+00 1.000000000000000e+00 -5.000000000000002e-02
-1.000000000000000e+00 2.000000000000000e+00 -5.000000000000002e-02
-1.000000000000000e+00 2.000000000000000e+00 -6.938893903907228e-18
-1.500000000000000e+00 1.000000000000000e+00 -5.000000000000002e-02
-1.500000000000000e+00 1.000000000000000e+00 -1.000000000000000e-01
-1.500000000000000e+00 2.000000000000000e+00 -1.000000000000000e-01
-1.500000000000000e+00 2.000000000000000e+00 -5.000000000000002e-02
-1.000000000000000e+00 1.000000000000000e+00 -5.000000000000002e-02
-1.000000000000000e+00 1.000000000000000e+00 -1.000000000000000e-01
-1.000000000000000e+00 2.000000000000000e+00 -1.000000000000000e-01
-1.000000000000000e+00 2.000000000000000e+00 -5.000000000000002e-02
-1.000000000000000e+00 1.000000000000000e+00 1.000000000000000e-01
-1.000000000000000e+00 1.000000000000000e+00 5.000000000000001e-02
-1.000000000000000e+00 2.000000000000000e+00 5.000000000000000e-02
-1.000000000000000e+00 2.000000000000000e+00 1.000000000000000e-01
-5.000000000000000e-01 1.000000000000000e+00 1.000000000000000e-01
-5.000000000000001e-01 1.000000000000000e+00 5.000000000000000e-02
-5.000000000000000e-01 2.000000000000000e+00 5.000000000000001e-02
-5.000000000000000e-01 2.000000000000000e+00 1.000000000000000e-01
-1.000000000000000e+00 1.000000000000000e+00 5.000000000000001e-02
-1.000000000000000e+00 1.000000000000000e+00 0.000000000000000e+00
-1.000000000000000e+00 2.000000000000000e+00 -6.938893903907228e-18
-1.000000000000000e+00 2.000000000000000e+00 5.000000000000000e-02
-5.000000000000001e-01 1.000000000000000e+00 5.000000000000000e-02
-5.000000000000000e-01 1.000000000000000e+00 0.000000000000000e+00
-5.000000000000000e-01 2.000000000000000e+00 0.000000000000000e+00
-5.000000000000000e-01 2.000000000000000e+00 5.000000000000001e-02
-1.000000000000000e+00 1.000000000000000e+00 0.000000000000000e+00
-1.000000000000000e+00 1.000000000000000e+00 -5.000000000000002e-02
-1.000000000000000e+00 2.000000000000000e+00 -5.000000000000002e-02
-1.000000000000000e+00 2.000000000000000e+00 -6.938893903907228e-18
-5.000000000000000e-01 1.000000000000000e+00 0.000000000000000e+00
-5.000000000000000e-01 1.000000000000000e+00 -5.000000000000001e-02
-5.000000000000002e-01 2.000000000000000e+00 -5.000000000000002e-02
-5.000000000000000e-01 2.000000000000000e+00 0.000000000000000e+00
-1.000000000000000e+00 1.000000000000000e+00 -5.000000000000002e-02
-1.000000000000000e+00 1.000000000000000e+00 -1.000000000000000e-01
-1.000000000000000e+00 2.000000000000000e+00 -1.000000000000000e-01
-1.000000000000000e+00 2.000000000000000e+00 -5.000000000000002e-02
-5.000000000000000e-01 1.000000000000000e+00 -5.000000000000001e-02
-5.000000000000000e-01 1.000000000000000e+00 -1.000000000000000e-01
-5.000000000000000e-01 2.000000000000000e+00 -1.000000000000000e-01
-5.000000000000002e-01 2.000000000000000e+00 -5.000000000000002e-02
-5.000000000000000e-01 1.000000000000000e+00 1.000000000000000e-01
-5.000000000000001e-01 1.000000000000000e+00 5.000000000000000e-02
-5.000000000000000e-01 2.000000000000000e+00 5.000000000000001e-02
-5.000000000000000e-01 2.000000000000000e+00 1.000000000000000e-01
0.000000000000000e+00 1.000000000000000e+00 1.000000000000000e-01
0.000000000000000e+00 1.000000000000000e+00 4.999999999999999e-02
0.000000000000000e+00 2.000000000000000e+00 4.999999999999999e-02
0.000000000000000e+00 2.000000000000000e+00 1.000000000000000e-01
-5.000000000000001e-01 1.000000000000000e+00 5.000000000000000e-02
-5.000000000000000e-01 1.000000000000000e+00 0.000000000000000e+00
-5.000000000000000e-01 2.000000000000000e+00 0.000000000000000e+00
-5.000000000000000e-01 2.000000000000000e+00 5.000000000000001e-02
0.000000000000000e+00 1.000000000000000e+00 4.999999999999999e-02
0.000000000000000e+00 1.000000000000000e+00 0.000000000000000e+00
0.000000000000000e+00 2.000000000000000e+00 0.000000000000000e+00
0.000000000000000e+00 2.000000000000000e+00 4.999999999999999e-02
-5.000000000000000e-01 1.000000000000000e+00 0.000000000000000e+00
-5.000000000000000e-01 1.000000000000000e+00 -5.000000000000001e-02
-5.000000000000002e-01 2.000000000000000e+00 -5.000000000000002e-02
-5.000000000000000e-01 2.000000000000000e+00 0.000000000000000e+00
0.000000000000000e+00 1.000000000000000e+00 0.000000000000000e+00
0.000000000000000e+00 1.000000000000000e+00 -5.000000000000002e-02
0.000000000000000e+00 2.000000000000000e+00 -5.000000000000002e-02
0.000000000000000e+00 2.000000000000000e+00 0.000000000000000e+00
-5.000000000000000e-01 1.000000000000000e+00 -5.000000000000001e-02
-5.000000000000000e-01 1.000000000000000e+00 -1.000000000000000e-01
-5.000000000000000e-01 2.000000000000000e+00 -1.000000000000000e-01
-5.000000000000002e-01 2.000000000000000e+00 -5.000000000000002e-02
0.000000000000000e+00 1.000000000000000e+00 -5.000000000000002e-02
0.000000000000000e+00 1.000000000000000e+00 -1.000000000000000e-01
0.000000000000000e+00 2.000000000000000e+00 -1.000000000000000e-01
0.000000000000000e+00 2.000000000000000e+00 -5.000000000000002e-02
        </DataArray>
      </Points>

      <Cells>
        <DataArray type="Int32" Name="connectivity" format="ascii">
0 1 2 3 4 5 6 7 8 9 10 11 12 13 14 15 16 17 18 19 20 21 22 23 24 25 26 27 28 29 30 31 32 33 34 35 36 37 38 39 40 41 42 43 44 45 46 47 48 49 50 51 52 53 54 55 56 57 58 59 60 61 62 63 64 65 66 67 68 69 70 71 72 73 74 75 76 77 78 79 80 81 82 83 84 85 86 87 88 89 90 91 92 93 94 95 96 97 98 99 100 101 102 103 104 105 106 107 108 109 110 111 112 113 114 115 116 117 118 119 120 121 122 123 124 125 126 127 128 129 130 131 132 133 134 135 136 137 138 139 140 141 142 143 144 145 146 147 148 149 150 151 152 153 154 155 156 157 158 159 
        </DataArray>
        <DataArray type="Int32" Name="offsets" format="ascii">
8 16 24 32 40 48 56 64 72 80 88 96 104 112 120 128 136 144 152 160 
        </DataArray>
        <DataArray type="UInt8" Name="types" format="ascii">
12 12 12 12 12 12 12 12 12 12 12 12 12 12 12 12 12 12 12 12 
        </DataArray>
      </Cells>

  <PointData>
        <DataArray type="Float64" Name="displacement" NumberOfComponents="3" format="ascii">
0.000000000000000e+00 0.000000000000000e+00 0.000000000000000e+00
0.000000000000000e+00 0.000000000000000e+00 0.000000000000000e+00
0.000000000000000e+00 0.000000000000000e+00 0.000000000000000e+00
0.000000000000000e+00 0.000000000000000e+00 0.000000000000000e+00
-2.751006244315979e-02 -4.526693026961986e-17 5.695037813768466e-02
-1.573252537324583e-02 1.121787463304859e-16 5.810567949692852e-02
-1.573252537324573e-02 1.591195393860409e-16 5.810567949692817e-02
-2.751006244315962e-02 1.416389093825404e-16 5.695037813768431e-02
0.000000000000000e+00 0.000000000000000e+00 0.000000000000000e+00
0.000000000000000e+00 0.000000000000000e+00 0.000000000000000e+00
0.000000000000000e+00 0.000000000000000e+00 0.000000000000000e+00
0.000000000000000e+00 0.000000000000000e+00 0.000000000000000e+00
-1.573252537324583e-02 1.121787463304859e-16 5.810567949692852e-02
-4.035113008439385e-03 -3.621509561586235e-17 5.927855311634407e-02
-4.035113008439243e-03 -8.261573653025584e-17 5.927855311634371e-02
-1.573252537324573e-02 1.591195393860409e-16 5.810567949692817e-02
0.000000000000000e+00 0.000000000000000e+00 0.000000000000000e+00
0.000000000000000e+00 0.000000000000000e+00 0.000000000000000e+00
0.000000000000000e+00 0.000000000000000e+00 0.000000000000000e+00
0.000000000000000e+00 0.000000000000000e+00 0.000000000000000e+00
-4.035113008439385e-03 -3.621509561586235e-17 5.927855311634407e-02
7.642278078221121e-03 -5.432326110627851e-17 6.044813907896700e-02
7.642278078221510e-03 1.740217948379704e-16 6.044813907896662e-02
-4.035113008439243e-03 -8.261573653025584e-17 5.927855311634371e-02
0.000000000000000e+00 0.000000000000000e+00 0.000000000000000e+00
0.000000000000000e+00 0.000000000000000e+00 0.000000000000000e+00
0.000000000000000e+00 0.000000000000000e+00 0.000000000000000e+00
0.000000000000000e+00 0.000000000000000e+00 0.000000000000000e+00
7.642278078221121e-03 -5.432326110627851e-17 6.044813907896700e-02
1.933283689454300e-02 -5.621876430928479e-18 6.158359758776476e-02
1.933283689454324e-02 2.839475687954013e-17 6.158359758776438e-02
7.642278078221510e-03 1.740217948379704e-16 6.044813907896662e-02
-2.751006244315979e-02 -4.526693026961986e-17 5.695037813768466e-02
-1.573252537324583e-02 1.121787463304859e-16 5.810567949692852e-02
-1.573252537324573e-02 1.591195393860409e-16 5.810567949692817e-02
-2.751006244315962e-02 1.416389093825404e-16 5.695037813768431e-02
-7.527315415769945e-02 1.598783901928283e-16 2.157583711627859e-01
-5.399088786705787e-02 1.516954000121508e-16 2.203880804165811e-01
-5.399088786705741e-02 -2.511563881413318e-17 2.203880804165806e-01
-7.527315415769897e-02 2.398674175043506e-16 2.157583711627854e-01
-1.573252537324583e-02 1.121787463304859e-16 5.810567949692852e-02
-4.035113008439385e-03 -3.621509561586235e-17 5.927855311634407e-02
-4.035113008439243e-03 -8.261573653025584e-17 5.927855311634371e-02
-1.573252537324573e-02 1.591195393860409e-16 5.810567949692817e-02
-5.399088786705787e-02 1.516954000121508e-16 2.203880804165811e-01
-3.270713886097389e-02 8.204593097340319e-18 2.250316236445357e-01
-3.270713886097341e-02 7.181996798787044e-17 2.250316236445352e-01
-5.399088786705741e-02 -2.511563881413318e-17 2.203880804165806e-01
-4.035113008439385e-03 -3.621509561586235e-17 5.927855311634407e-02
7.642278078221121e-03 -5.432326110627851e-17 6.044813907896700e-02
7.642278078221510e-03 1.740217948379704e-16 6.044813907896662e-02
-4.035113008439243e-03 -8.261573653025584e-17 5.927855311634371e-02
-3.270713886097389e-02 8.204593097340319e-18 2.250316236445357e-01
-1.140344351723871e-02 -1.356434708184854e-16 2.296837176083727e-01
-1.140344351723869e-02 1.738700911864032e-16 2.296837176083722e-01
-3.270713886097341e-02 7.181996798787044e-17 2.250316236445352e-01
7.642278078221121e-03 -5.432326110627851e-17 6.044813907896700e-02
1.933283689454300e-02 -5.621876430928479e-18 6.158359758776476e-02
1.933283689454324e-02 2.839475687954013e-17 6.158359758776438e-02
7.642278078221510e-03 1.740217948379704e-16 6.044813907896662e-02
-1.140344351723871e-02 -1.356434708184854e-16 2.296837176083727e-01
9.983814292336140e-03 1.094262849341582e-16 2.343603712117961e-01
9.983814292336385e-03 -1.239764834813870e-16 2.343603712117956e-01
-1.140344351723869e-02 1.738700911864032e-16 2.296837176083722e-01
-7.527315415769945e-02 1.598783901928283e-16 2.157583711627859e-01
-5.399088786705787e-02 1.516954000121508e-16 2.203880804165811e-01
-5.399088786705741e-02 -2.511563881413318e-17 2.203880804165806e-01
-7.527315415769897e-02 2.398674175043506e-16 2.157583711627854e-01
-1.574565560063609e-01 -8.887147009568349e-17 4.576913666940566e-01
-1.287670683369519e-01 5.627680592242963e-17 4.666268775580406e-01
-1.287670683369513e-01 -1.046486168465399e-16 4.666268775580401e-01
-1.574565560063602e-01 1.433782154352223e-16 4.576913666940560e-01
-5.399088786705787e-02 1.516954000121508e-16 2.203880804165811e-01
-3.270713886097389e-02 8.204593097340319e-18 2.250316236445357e-01
-3.270713886097341e-02 7.181996798787044e-17 2.250316236445352e-01
-5.399088786705741e-02 -2.511563881413318e-17 2.203880804165806e-01
-1.287670683369519e-01 5.627680592242963e-17 4.666268775580406e-01
-1.001362110367043e-01 -8.277425015835252e-17 4.755392730860036e-01
-1.001362110367036e-01 5.959809785510896e-17 4.755392730860030e-01
-1.287670683369513e-01 -1.046486168465399e-16 4.666268775580401e-01
-3.270713886097389e-02 8.204593097340319e-18 2.250316236445357e-01
-1.140344351723871e-02 -1.356434708184854e-16 2.296837176083727e-01
-1.140344351723869e-02 1.738700911864032e-16 2.296837176083722e-01
-3.270713886097341e-02 7.181996798787044e-17 2.250316236445352e-01
-1.001362110367043e-01 -8.277425015835252e-17 4.755392730860036e-01
-7.151100485028211e-02 -6.262279070834982e-17 4.844497372097343e-01
-7.151100485028154e-02 -5.788330594822265e-17 4.844497372097337e-01
-1.001362110367036e-01 5.959809785510896e-17 4.755392730860030e-01
-1.140344351723871e-02 -1.356434708184854e-16 2.296837176083727e-01
9.983814292336140e-03 1.094262849341582e-16 2.343603712117961e-01
9.983814292336385e-03 -1.239764834813870e-16 2.343603712117956e-01
-1.140344351723869e-02 1.738700911864032e-16 2.296837176083722e-01
-7.151100485028211e-02 -6.262279070834982e-17 4.844497372097343e-01
-4.288698903982575e-02 -1.223302047966374e-16 4.933444293215393e-01
-4.288698903982505e-02 5.700260188746027e-17 4.933444293215387e-01
-7.151100485028154e-02 -5.788330594822265e-17 4.844497372097337e-01
-1.574565560063609e-01 -8.887147009568349e-17 4.576913666940566e-01
-1.287670683369519e-01 5.627680592242963e-17 4.666268775580406e-01
-1.287670683369513e-01 -1.046486168465399e-16 4.666268775580401e-01
-1.574565560063602e-01 1.433782154352223e-16 4.576913666940560e-01
-2.791539635192191e-01 1.199570602272283e-16 7.629588116185239e-01
-2.451277482421975e-01 -6.097999298777701e-17 7.762451942576295e-01
-2.451277482421969e-01 1.402651554097378e-16 7.762451942576289e-01
-2.791539635192185e-01 7.676125215599498e-17 7.629588116185232e-01
-1.287670683369519e-01 5.627680592242963e-17 4.666268775580406e-01
-1.001362110367043e-01 -8.277425015835252e-17 4.755392730860036e-01
-1.001362110367036e-01 5.959809785510896e-17 4.755392730860030e-01
-1.287670683369513e-01 -1.046486168465399e-16 4.666268775580401e-01
-2.451277482421975e-01 -6.097999298777701e-17 7.762451942576295e-01
-2.111032020792880e-01 -9.521773003233808e-17 7.895378333377233e-01
-2.111032020792876e-01 -2.577297861530642e-17 7.895378333377228e-01
-2.451277482421969e-01 1.402651554097378e-16 7.762451942576289e-01
-1.001362110367043e-01 -8.277425015835252e-17 4.755392730860036e-01
-7.151100485028211e-02 -6.262279070834982e-17 4.844497372097343e-01
-7.151100485028154e-02 -5.788330594822265e-17 4.844497372097337e-01
-1.001362110367036e-01 5.959809785510896e-17 4.755392730860030e-01
-2.111032020792880e-01 -9.521773003233808e-17 7.895378333377233e-01
-1.770766547691265e-01 -6.278025645625731e-17 8.028315834847471e-01
-1.770766547691257e-01 -3.984742369086759e-16 8.028315834847465e-01
-2.111032020792876e-01 -2.577297861530642e-17 7.895378333377228e-01
-7.151100485028211e-02 -6.262279070834982e-17 4.844497372097343e-01
-4.288698903982575e-02 -1.223302047966374e-16 4.933444293215393e-01
-4.288698903982505e-02 5.700260188746027e-17 4.933444293215387e-01
-7.151100485028154e-02 -5.788330594822265e-17 4.844497372097337e-01
-1.770766547691265e-01 -6.278025645625731e-17 8.028315834847471e-01
-1.429955999225229e-01 -3.361306719641510e-16 8.161656644759436e-01
-1.429955999225223e-01 4.599030779305347e-17 8.161656644759432e-01
-1.770766547691257e-01 -3.984742369086759e-16 8.028315834847465e-01
-2.791539635192191e-01 1.199570602272283e-16 7.629588116185239e-01
-2.451277482421975e-01 -6.097999298777701e-17 7.762451942576295e-01
-2.451277482421969e-01 1.402651554097378e-16 7.762451942576289e-01
-2.791539635192185e-01 7.676125215599498e-17 7.629588116185232e-01
-4.400379059348504e-01 -1.260499968237752e-18 1.115069033761965e+00
-4.021168808370886e-01 -3.177006197500903e-17 1.132423602745781e+00
-4.021168808370878e-01 8.065967031237874e-17 1.132423602745780e+00
-4.400379059348495e-01 -3.624767636256825e-17 1.115069033761965e+00
-2.451277482421975e-01 -6.097999298777701e-17 7.762451942576295e-01
-2.111032020792880e-01 -9.521773003233808e-17 7.895378333377233e-01
-2.111032020792876e-01 -2.577297861530642e-17 7.895378333377228e-01
-2.451277482421969e-01 1.402651554097378e-16 7.762451942576289e-01
-4.021168808370886e-01 -3.177006197500903e-17 1.132423602745781e+00
-3.642319892234557e-01 1.603747362006418e-17 1.149745384829074e+00
-3.642319892234548e-01 8.127745734678199e-18 1.149745384829073e+00
-4.021168808370878e-01 8.065967031237874e-17 1.132423602745780e+00
-2.111032020792880e-01 -9.521773003233808e-17 7.895378333377233e-01
-1.770766547691265e-01 -6.278025645625731e-17 8.028315834847471e-01
-1.770766547691257e-01 -3.984742369086759e-16 8.028315834847465e-01
-2.111032020792876e-01 -2.577297861530642e-17 7.895378333377228e-01
-3.642319892234557e-01 1.603747362006418e-17 1.149745384829074e+00
-3.263434835869357e-01 -1.997813870851420e-16 1.167072227456760e+00
-3.263434835869349e-01 -4.397653412714100e-18 1.167072227456759e+00
-3.642319892234548e-01 8.127745734678199e-18 1.149745384829073e+00
-1.770766547691265e-01 -6.278025645625731e-17 8.028315834847471e-01
-1.429955999225229e-01 -3.361306719641510e-16 8.161656644759436e-01
-1.429955999225223e-01 4.599030779305347e-17 8.161656644759432e-01
-1.770766547691257e-01 -3.984742369086759e-16 8.028315834847465e-01
-3.263434835869357e-01 -1.997813870851420e-16 1.167072227456760e+00
-2.884558774564612e-01 -1.731405521291555e-16 1.184391064886461e+00
-2.884558774564605e-01 -3.494971691268035e-16 1.184391064886460e+00
-3.263434835869349e-01 -4.397653412714100e-18 1.167072227456759e+00
        </DataArray>
  </PointData>
  <CellData>
        <DataArray type="Float64" Name="element_id" format="ascii">
0.000000000000000e+00
1.000000000000000e+00
2.000000000000000e+00
3.000000000000000e+00
4.000000000000000e+00
5.000000000000000e+00
6.000000000000000e+00
7.000000000000000e+00
8.000000000000000e+00
9.000000000000000e+00
1.000000000000000e+01
1.100000000000000e+01
1.200000000000000e+01
1.300000000000000e+01
1.400000000000000e+01
1.500000000000000e+01
1.600000000000000e+01
1.700000000000000e+01
1.800000000000000e+01
1.900000000000000e+01
        </DataArray>
        <DataArray type="Float64" Name="element_owner" format="ascii">
0.000000000000000e+00
0.000000000000000e+00
0.000000000000000e+00
0.000000000000000e+00
0.000000000000000e+00
0.000000000000000e+00
0.000000000000000e+00
0.000000000000000e+00
0.000000000000000e+00
0.000000000000000e+00
0.000000000000000e+00
0.000000000000000e+00
0.000000000000000e+00
0.000000000000000e+00
0.000000000000000e+00
0.000000000000000e+00
0.000000000000000e+00
0.000000000000000e+00
0.000000000000000e+00
0.000000000000000e+00
        </DataArray>
      </CellData>

    </Piece>
  </UnstructuredGrid>
</VTKFile>
