<?xml version="1.0" ?> 
<!-- 
# vtk DataFile Version 3.0
-->
<VTKFile type="UnstructuredGrid" version="0.1" compressor="vtkZLibDataCompressor" byte_order="LittleEndian">
  <UnstructuredGrid>
    <FieldData>
      <DataArray type="Float64" Name="TIME" NumberOfTuples="1" format="ascii">
1
      </DataArray>
    </FieldData>

    <Piece NumberOfPoints="160" NumberOfCells="20" >
      <Points>
        <DataArray type="Float64" NumberOfComponents="3" format="ascii">
0.000000000000000e+00 1.000000000000000e+00 1.000000000000000e-01
0.000000000000000e+00 1.000000000000000e+00 4.999999999999999e-02
0.000000000000000e+00 2.000000000000000e+00 4.999999999999999e-02
0.000000000000000e+00 2.000000000000000e+00 1.000000000000000e-01
5.000000000000000e-01 1.000000000000000e+00 1.000000000000000e-01
5.000000000000000e-01 1.000000000000000e+00 5.000000000000001e-02
5.000000000000001e-01 2.000000000000000e+00 5.000000000000000e-02
5.000000000000000e-01 2.000000000000000e+00 1.000000000000000e-01
0.000000000000000e+00 1.000000000000000e+00 4.999999999999999e-02
0.000000000000000e+00 1.000000000000000e+00 0.000000000000000e+00
0.000000000000000e+00 2.000000000000000e+00 0.000000000000000e+00
0.000000000000000e+00 2.000000000000000e+00 4.999999999999999e-02
5.000000000000000e-01 1.000000000000000e+00 5.000000000000001e-02
5.000000000000000e-01 1.000000000000000e+00 0.000000000000000e+00
5.000000000000000e-01 2.000000000000000e+00 0.000000000000000e+00
5.000000000000001e-01 2.000000000000000e+00 5.000000000000000e-02
0.000000000000000e+00 1.000000000000000e+00 0.000000000000000e+00
0.000000000000000e+00 1.000000000000000e+00 -5.000000000000002e-02
0.000000000000000e+00 2.000000000000000e+00 -5.000000000000002e-02
0.000000000000000e+00 2.000000000000000e+00 0.000000000000000e+00
5.000000000000000e-01 1.000000000000000e+00 0.000000000000000e+00
5.000000000000002e-01 1.000000000000000e+00 -5.000000000000002e-02
5.000000000000000e-01 2.000000000000000e+00 -5.000000000000001e-02
5.000000000000000e-01 2.000000000000000e+00 0.000000000000000e+00
0.000000000000000e+00 1.000000000000000e+00 -5.000000000000002e-02
0.000000000000000e+00 1.000000000000000e+00 -1.000000000000000e-01
0.000000000000000e+00 2.000000000000000e+00 -1.000000000000000e-01
0.000000000000000e+00 2.000000000000000e+00 -5.000000000000002e-02
5.000000000000002e-01 1.000000000000000e+00 -5.000000000000002e-02
5.000000000000000e-01 1.000000000000000e+00 -1.000000000000000e-01
5.000000000000000e-01 2.000000000000000e+00 -1.000000000000000e-01
5.000000000000000e-01 2.000000000000000e+00 -5.000000000000001e-02
5.000000000000000e-01 1.000000000000000e+00 1.000000000000000e-01
5.000000000000000e-01 1.000000000000000e+00 5.000000000000001e-02
5.000000000000001e-01 2.000000000000000e+00 5.000000000000000e-02
5.000000000000000e-01 2.000000000000000e+00 1.000000000000000e-01
1.000000000000000e+00 1.000000000000000e+00 1.000000000000000e-01
1.000000000000000e+00 1.000000000000000e+00 5.000000000000000e-02
1.000000000000000e+00 2.000000000000000e+00 5.000000000000001e-02
1.000000000000000e+00 2.000000000000000e+00 1.000000000000000e-01
5.000000000000000e-01 1.000000000000000e+00 5.000000000000001e-02
5.000000000000000e-01 1.000000000000000e+00 0.000000000000000e+00
5.000000000000000e-01 2.000000000000000e+00 0.000000000000000e+00
5.000000000000001e-01 2.000000000000000e+00 5.000000000000000e-02
1.000000000000000e+00 1.000000000000000e+00 5.000000000000000e-02
1.000000000000000e+00 1.000000000000000e+00 -6.938893903907228e-18
1.000000000000000e+00 2.000000000000000e+00 0.000000000000000e+00
1.000000000000000e+00 2.000000000000000e+00 5.000000000000001e-02
5.000000000000000e-01 1.000000000000000e+00 0.000000000000000e+00
5.000000000000002e-01 1.000000000000000e+00 -5.000000000000002e-02
5.000000000000000e-01 2.000000000000000e+00 -5.000000000000001e-02
5.000000000000000e-01 2.000000000000000e+00 0.000000000000000e+00
1.000000000000000e+00 1.000000000000000e+00 -6.938893903907228e-18
1.000000000000000e+00 1.000000000000000e+00 -5.000000000000002e-02
1.000000000000000e+00 2.000000000000000e+00 -5.000000000000002e-02
1.000000000000000e+00 2.000000000000000e+00 0.000000000000000e+00
5.000000000000002e-01 1.000000000000000e+00 -5.000000000000002e-02
5.000000000000000e-01 1.000000000000000e+00 -1.000000000000000e-01
5.000000000000000e-01 2.000000000000000e+00 -1.000000000000000e-01
5.000000000000000e-01 2.000000000000000e+00 -5.000000000000001e-02
1.000000000000000e+00 1.000000000000000e+00 -5.000000000000002e-02
1.000000000000000e+00 1.000000000000000e+00 -1.000000000000000e-01
1.000000000000000e+00 2.000000000000000e+00 -1.000000000000000e-01
1.000000000000000e+00 2.000000000000000e+00 -5.000000000000002e-02
1.000000000000000e+00 1.000000000000000e+00 1.000000000000000e-01
1.000000000000000e+00 1.000000000000000e+00 5.000000000000000e-02
1.000000000000000e+00 2.000000000000000e+00 5.000000000000001e-02
1.000000000000000e+00 2.000000000000000e+00 1.000000000000000e-01
1.500000000000000e+00 1.000000000000000e+00 1.000000000000000e-01
1.500000000000000e+00 1.000000000000000e+00 5.000000000000000e-02
1.500000000000000e+00 2.000000000000000e+00 5.000000000000003e-02
1.500000000000000e+00 2.000000000000000e+00 1.000000000000000e-01
1.000000000000000e+00 1.000000000000000e+00 5.000000000000000e-02
1.000000000000000e+00 1.000000000000000e+00 -6.938893903907228e-18
1.000000000000000e+00 2.000000000000000e+00 0.000000000000000e+00
1.000000000000000e+00 2.000000000000000e+00 5.000000000000001e-02
1.500000000000000e+00 1.000000000000000e+00 5.000000000000000e-02
1.500000000000000e+00 1.000000000000000e+00 0.000000000000000e+00
1.500000000000000e+00 2.000000000000000e+00 0.000000000000000e+00
1.500000000000000e+00 2.000000000000000e+00 5.000000000000003e-02
1.000000000000000e+00 1.000000000000000e+00 -6.938893903907228e-18
1.000000000000000e+00 1.000000000000000e+00 -5.000000000000002e-02
1.000000000000000e+00 2.000000000000000e+00 -5.000000000000002e-02
1.000000000000000e+00 2.000000000000000e+00 0.000000000000000e+00
1.500000000000000e+00 1.000000000000000e+00 0.000000000000000e+00
1.500000000000000e+00 1.000000000000000e+00 -5.000000000000002e-02
1.500000000000000e+00 2.000000000000000e+00 -5.000000000000002e-02
1.500000000000000e+00 2.000000000000000e+00 0.000000000000000e+00
1.000000000000000e+00 1.000000000000000e+00 -5.000000000000002e-02
1.000000000000000e+00 1.000000000000000e+00 -1.000000000000000e-01
1.000000000000000e+00 2.000000000000000e+00 -1.000000000000000e-01
1.000000000000000e+00 2.000000000000000e+00 -5.000000000000002e-02
1.500000000000000e+00 1.000000000000000e+00 -5.000000000000002e-02
1.500000000000000e+00 1.000000000000000e+00 -1.000000000000000e-01
1.500000000000000e+00 2.000000000000000e+00 -1.000000000000000e-01
1.500000000000000e+00 2.000000000000000e+00 -5.000000000000002e-02
1.500000000000000e+00 1.000000000000000e+00 1.000000000000000e-01
1.500000000000000e+00 1.000000000000000e+00 5.000000000000000e-02
1.500000000000000e+00 2.000000000000000e+00 5.000000000000003e-02
1.500000000000000e+00 2.000000000000000e+00 1.000000000000000e-01
2.000000000000000e+00 1.000000000000000e+00 1.000000000000000e-01
2.000000000000000e+00 1.000000000000000e+00 5.000000000000001e-02
2.000000000000000e+00 2.000000000000000e+00 5.000000000000000e-02
2.000000000000000e+00 2.000000000000000e+00 1.000000000000000e-01
1.500000000000000e+00 1.000000000000000e+00 5.000000000000000e-02
1.500000000000000e+00 1.000000000000000e+00 0.000000000000000e+00
1.500000000000000e+00 2.000000000000000e+00 0.000000000000000e+00
1.500000000000000e+00 2.000000000000000e+00 5.000000000000003e-02
2.000000000000000e+00 1.000000000000000e+00 5.000000000000001e-02
2.000000000000000e+00 1.000000000000000e+00 0.000000000000000e+00
2.000000000000000e+00 2.000000000000000e+00 3.469446951953614e-18
2.000000000000000e+00 2.000000000000000e+00 5.000000000000000e-02
1.500000000000000e+00 1.000000000000000e+00 0.000000000000000e+00
1.500000000000000e+00 1.000000000000000e+00 -5.000000000000002e-02
1.500000000000000e+00 2.000000000000000e+00 -5.000000000000002e-02
1.500000000000000e+00 2.000000000000000e+00 0.000000000000000e+00
2.000000000000000e+00 1.000000000000000e+00 0.000000000000000e+00
2.000000000000000e+00 1.000000000000000e+00 -5.000000000000000e-02
2.000000000000000e+00 2.000000000000000e+00 -5.000000000000001e-02
2.000000000000000e+00 2.000000000000000e+00 3.469446951953614e-18
1.500000000000000e+00 1.000000000000000e+00 -5.000000000000002e-02
1.500000000000000e+00 1.000000000000000e+00 -1.000000000000000e-01
1.500000000000000e+00 2.000000000000000e+00 -1.000000000000000e-01
1.500000000000000e+00 2.000000000000000e+00 -5.000000000000002e-02
2.000000000000000e+00 1.000000000000000e+00 -5.000000000000000e-02
2.000000000000000e+00 1.000000000000000e+00 -1.000000000000000e-01
2.000000000000000e+00 2.000000000000000e+00 -1.000000000000000e-01
2.000000000000000e+00 2.000000000000000e+00 -5.000000000000001e-02
2.000000000000000e+00 1.000000000000000e+00 1.000000000000000e-01
2.000000000000000e+00 1.000000000000000e+00 5.000000000000001e-02
2.000000000000000e+00 2.000000000000000e+00 5.000000000000000e-02
2.000000000000000e+00 2.000000000000000e+00 1.000000000000000e-01
2.500000000000000e+00 1.000000000000000e+00 1.000000000000000e-01
2.500000000000000e+00 1.000000000000000e+00 5.000000000000000e-02
2.500000000000000e+00 2.000000000000000e+00 5.000000000000000e-02
2.500000000000000e+00 2.000000000000000e+00 1.000000000000000e-01
2.000000000000000e+00 1.000000000000000e+00 5.000000000000001e-02
2.000000000000000e+00 1.000000000000000e+00 0.000000000000000e+00
2.000000000000000e+00 2.000000000000000e+00 3.469446951953614e-18
2.000000000000000e+00 2.000000000000000e+00 5.000000000000000e-02
2.500000000000000e+00 1.000000000000000e+00 5.000000000000000e-02
2.500000000000000e+00 1.000000000000000e+00 0.000000000000000e+00
2.500000000000000e+00 2.000000000000000e+00 0.000000000000000e+00
2.500000000000000e+00 2.000000000000000e+00 5.000000000000000e-02
2.000000000000000e+00 1.000000000000000e+00 0.000000000000000e+00
2.000000000000000e+00 1.000000000000000e+00 -5.000000000000000e-02
2.000000000000000e+00 2.000000000000000e+00 -5.000000000000001e-02
2.000000000000000e+00 2.000000000000000e+00 3.469446951953614e-18
2.500000000000000e+00 1.000000000000000e+00 0.000000000000000e+00
2.500000000000000e+00 1.000000000000000e+00 -5.000000000000002e-02
2.500000000000000e+00 2.000000000000000e+00 -5.000000000000002e-02
2.500000000000000e+00 2.000000000000000e+00 0.000000000000000e+00
2.000000000000000e+00 1.000000000000000e+00 -5.000000000000000e-02
2.000000000000000e+00 1.000000000000000e+00 -1.000000000000000e-01
2.000000000000000e+00 2.000000000000000e+00 -1.000000000000000e-01
2.000000000000000e+00 2.000000000000000e+00 -5.000000000000001e-02
2.500000000000000e+00 1.000000000000000e+00 -5.000000000000002e-02
2.500000000000000e+00 1.000000000000000e+00 -1.000000000000000e-01
2.500000000000000e+00 2.000000000000000e+00 -1.000000000000000e-01
2.500000000000000e+00 2.000000000000000e+00 -5.000000000000002e-02
        </DataArray>
      </Points>

      <Cells>
        <DataArray type="Int32" Name="connectivity" format="ascii">
0 1 2 3 4 5 6 7 8 9 10 11 12 13 14 15 16 17 18 19 20 21 22 23 24 25 26 27 28 29 30 31 32 33 34 35 36 37 38 39 40 41 42 43 44 45 46 47 48 49 50 51 52 53 54 55 56 57 58 59 60 61 62 63 64 65 66 67 68 69 70 71 72 73 74 75 76 77 78 79 80 81 82 83 84 85 86 87 88 89 90 91 92 93 94 95 96 97 98 99 100 101 102 103 104 105 106 107 108 109 110 111 112 113 114 115 116 117 118 119 120 121 122 123 124 125 126 127 128 129 130 131 132 133 134 135 136 137 138 139 140 141 142 143 144 145 146 147 148 149 150 151 152 153 154 155 156 157 158 159 
        </DataArray>
        <DataArray type="Int32" Name="offsets" format="ascii">
8 16 24 32 40 48 56 64 72 80 88 96 104 112 120 128 136 144 152 160 
        </DataArray>
        <DataArray type="UInt8" Name="types" format="ascii">
12 12 12 12 12 12 12 12 12 12 12 12 12 12 12 12 12 12 12 12 
        </DataArray>
      </Cells>

  <PointData>
        <DataArray type="Float64" Name="displacement" NumberOfComponents="3" format="ascii">
-4.400379059348504e-01 -1.260499968237752e-18 1.115069033761965e+00
-4.021168808370886e-01 -3.177006197500903e-17 1.132423602745781e+00
-4.021168808370878e-01 8.065967031237874e-17 1.132423602745780e+00
-4.400379059348495e-01 -3.624767636256825e-17 1.115069033761965e+00
-6.358533352658929e-01 7.879729667660307e-17 1.501070409402176e+00
-5.952787798006977e-01 -6.645205066843946e-17 1.521816089442392e+00
-5.952787798006968e-01 1.496748018108316e-16 1.521816089442391e+00
-6.358533352658921e-01 2.626135815899419e-18 1.501070409402175e+00
-4.021168808370886e-01 -3.177006197500903e-17 1.132423602745781e+00
-3.642319892234557e-01 1.603747362006418e-17 1.149745384829074e+00
-3.642319892234548e-01 8.127745734678199e-18 1.149745384829073e+00
-4.021168808370878e-01 8.065967031237874e-17 1.132423602745780e+00
-5.952787798006977e-01 -6.645205066843946e-17 1.521816089442392e+00
-5.547047719106053e-01 -1.695180933108431e-16 1.542564262727842e+00
-5.547047719106044e-01 1.443457022178829e-16 1.542564262727841e+00
-5.952787798006968e-01 1.496748018108316e-16 1.521816089442391e+00
-3.642319892234557e-01 1.603747362006418e-17 1.149745384829074e+00
-3.263434835869357e-01 -1.997813870851420e-16 1.167072227456760e+00
-3.263434835869349e-01 -4.397653412714100e-18 1.167072227456759e+00
-3.642319892234548e-01 8.127745734678199e-18 1.149745384829073e+00
-5.547047719106053e-01 -1.695180933108431e-16 1.542564262727842e+00
-5.141350340754033e-01 -1.744012268381082e-17 1.563306399181311e+00
-5.141350340754022e-01 -2.822183957496961e-16 1.563306399181310e+00
-5.547047719106044e-01 1.443457022178829e-16 1.542564262727841e+00
-3.263434835869357e-01 -1.997813870851420e-16 1.167072227456760e+00
-2.884558774564612e-01 -1.731405521291555e-16 1.184391064886461e+00
-2.884558774564605e-01 -3.494971691268035e-16 1.184391064886460e+00
-3.263434835869349e-01 -4.397653412714100e-18 1.167072227456759e+00
-5.141350340754033e-01 -1.744012268381082e-17 1.563306399181311e+00
-4.735327874117172e-01 -1.569067156365765e-16 1.584088754253914e+00
-4.735327874117162e-01 -9.425245728197724e-17 1.584088754253913e+00
-5.141350340754022e-01 -2.822183957496961e-16 1.563306399181310e+00
-6.358533352658929e-01 7.879729667660307e-17 1.501070409402176e+00
-5.952787798006977e-01 -6.645205066843946e-17 1.521816089442392e+00
-5.952787798006968e-01 1.496748018108316e-16 1.521816089442391e+00
-6.358533352658921e-01 2.626135815899419e-18 1.501070409402175e+00
-8.606070329938602e-01 7.562818547733632e-17 1.910851623331796e+00
-8.182080811217919e-01 1.233235228983029e-16 1.934328809599127e+00
-8.182080811217917e-01 4.148732390064332e-16 1.934328809599126e+00
-8.606070329938599e-01 3.189725516170567e-16 1.910851623331796e+00
-5.952787798006977e-01 -6.645205066843946e-17 1.521816089442392e+00
-5.547047719106053e-01 -1.695180933108431e-16 1.542564262727842e+00
-5.547047719106044e-01 1.443457022178829e-16 1.542564262727841e+00
-5.952787798006968e-01 1.496748018108316e-16 1.521816089442391e+00
-8.182080811217919e-01 1.233235228983029e-16 1.934328809599127e+00
-7.758320845137892e-01 1.418563545057319e-16 1.957773060788098e+00
-7.758320845137889e-01 5.526814205290810e-17 1.957773060788098e+00
-8.182080811217917e-01 4.148732390064332e-16 1.934328809599126e+00
-5.547047719106053e-01 -1.695180933108431e-16 1.542564262727842e+00
-5.141350340754033e-01 -1.744012268381082e-17 1.563306399181311e+00
-5.141350340754022e-01 -2.822183957496961e-16 1.563306399181310e+00
-5.547047719106044e-01 1.443457022178829e-16 1.542564262727841e+00
-7.758320845137892e-01 1.418563545057319e-16 1.957773060788098e+00
-7.334503309287040e-01 4.946531346474144e-17 1.981226610647761e+00
-7.334503309287037e-01 3.393567307643122e-17 1.981226610647760e+00
-7.758320845137889e-01 5.526814205290810e-17 1.957773060788098e+00
-5.141350340754033e-01 -1.744012268381082e-17 1.563306399181311e+00
-4.735327874117172e-01 -1.569067156365765e-16 1.584088754253914e+00
-4.735327874117162e-01 -9.425245728197724e-17 1.584088754253913e+00
-5.141350340754022e-01 -2.822183957496961e-16 1.563306399181310e+00
-7.334503309287040e-01 4.946531346474144e-17 1.981226610647761e+00
-6.910703618636278e-01 -1.231613760055006e-17 2.004674922866625e+00
-6.910703618636276e-01 -1.699503730565046e-16 2.004674922866625e+00
-7.334503309287037e-01 3.393567307643122e-17 1.981226610647760e+00
-8.606070329938602e-01 7.562818547733632e-17 1.910851623331796e+00
-8.182080811217919e-01 1.233235228983029e-16 1.934328809599127e+00
-8.182080811217917e-01 4.148732390064332e-16 1.934328809599126e+00
-8.606070329938599e-01 3.189725516170567e-16 1.910851623331796e+00
-1.107215738270135e+00 2.612699947511459e-16 2.336914601245485e+00
-1.063688649380887e+00 3.522400328312476e-16 2.362300474518468e+00
-1.063688649380886e+00 1.004405685651583e-16 2.362300474518468e+00
-1.107215738270135e+00 8.637515027465565e-17 2.336914601245484e+00
-8.182080811217919e-01 1.233235228983029e-16 1.934328809599127e+00
-7.758320845137892e-01 1.418563545057319e-16 1.957773060788098e+00
-7.758320845137889e-01 5.526814205290810e-17 1.957773060788098e+00
-8.182080811217917e-01 4.148732390064332e-16 1.934328809599126e+00
-1.063688649380887e+00 3.522400328312476e-16 2.362300474518468e+00
-1.020160978293152e+00 1.648688018399495e-16 2.387687727223675e+00
-1.020160978293152e+00 1.607000538189151e-16 2.387687727223675e+00
-1.063688649380886e+00 1.004405685651583e-16 2.362300474518468e+00
-7.758320845137892e-01 1.418563545057319e-16 1.957773060788098e+00
-7.334503309287040e-01 4.946531346474144e-17 1.981226610647761e+00
-7.334503309287037e-01 3.393567307643122e-17 1.981226610647760e+00
-7.758320845137889e-01 5.526814205290810e-17 1.957773060788098e+00
-1.020160978293152e+00 1.648688018399495e-16 2.387687727223675e+00
-9.766389869656396e-01 -2.494966686752190e-17 2.413065314053849e+00
-9.766389869656392e-01 2.104017419222715e-17 2.413065314053848e+00
-1.020160978293152e+00 1.607000538189151e-16 2.387687727223675e+00
-7.334503309287040e-01 4.946531346474144e-17 1.981226610647761e+00
-6.910703618636278e-01 -1.231613760055006e-17 2.004674922866625e+00
-6.910703618636276e-01 -1.699503730565046e-16 2.004674922866625e+00
-7.334503309287037e-01 3.393567307643122e-17 1.981226610647760e+00
-9.766389869656396e-01 -2.494966686752190e-17 2.413065314053849e+00
-9.330952966372387e-01 2.262572346544714e-17 2.438479887626635e+00
-9.330952966372382e-01 4.406914205876700e-16 2.438479887626634e+00
-9.766389869656392e-01 2.104017419222715e-17 2.413065314053848e+00
-1.107215738270135e+00 2.612699947511459e-16 2.336914601245485e+00
-1.063688649380887e+00 3.522400328312476e-16 2.362300474518468e+00
-1.063688649380886e+00 1.004405685651583e-16 2.362300474518468e+00
-1.107215738270135e+00 8.637515027465565e-17 2.336914601245484e+00
-1.368295702761728e+00 4.763114954225709e-16 2.773350195161964e+00
-1.324124183463898e+00 4.914861730300821e-16 2.799919998467093e+00
-1.324124183463896e+00 4.956125279461361e-16 2.799919998467092e+00
-1.368295702761727e+00 4.650491323815767e-16 2.773350195161962e+00
-1.063688649380887e+00 3.522400328312476e-16 2.362300474518468e+00
-1.020160978293152e+00 1.648688018399495e-16 2.387687727223675e+00
-1.020160978293152e+00 1.607000538189151e-16 2.387687727223675e+00
-1.063688649380886e+00 1.004405685651583e-16 2.362300474518468e+00
-1.324124183463898e+00 4.914861730300821e-16 2.799919998467093e+00
-1.279969953232088e+00 1.175366944399951e-16 2.826458036646042e+00
-1.279969953232087e+00 4.839655693543429e-16 2.826458036646041e+00
-1.324124183463896e+00 4.956125279461361e-16 2.799919998467092e+00
-1.020160978293152e+00 1.648688018399495e-16 2.387687727223675e+00
-9.766389869656396e-01 -2.494966686752190e-17 2.413065314053849e+00
-9.766389869656392e-01 2.104017419222715e-17 2.413065314053848e+00
-1.020160978293152e+00 1.607000538189151e-16 2.387687727223675e+00
-1.279969953232088e+00 1.175366944399951e-16 2.826458036646042e+00
-1.235809525750715e+00 1.301798527478083e-16 2.853006742412723e+00
-1.235809525750714e+00 8.636757881797901e-17 2.853006742412722e+00
-1.279969953232087e+00 4.839655693543429e-16 2.826458036646041e+00
-9.766389869656396e-01 -2.494966686752190e-17 2.413065314053849e+00
-9.330952966372387e-01 2.262572346544714e-17 2.438479887626635e+00
-9.330952966372382e-01 4.406914205876700e-16 2.438479887626634e+00
-9.766389869656392e-01 2.104017419222715e-17 2.413065314053848e+00
-1.235809525750715e+00 1.301798527478083e-16 2.853006742412723e+00
-1.191651613048107e+00 5.294116385750736e-17 2.879550817720946e+00
-1.191651613048106e+00 5.892185623027063e-17 2.879550817720945e+00
-1.235809525750714e+00 8.636757881797901e-17 2.853006742412722e+00
-1.368295702761728e+00 4.763114954225709e-16 2.773350195161964e+00
-1.324124183463898e+00 4.914861730300821e-16 2.799919998467093e+00
-1.324124183463896e+00 4.956125279461361e-16 2.799919998467092e+00
-1.368295702761727e+00 4.650491323815767e-16 2.773350195161962e+00
-1.636228629422703e+00 7.879276544799466e-16 3.215517822181121e+00
-1.591867212092231e+00 7.300797348099599e-16 3.242449999099192e+00
-1.591867212092229e+00 5.775742287778179e-16 3.242449999099191e+00
-1.636228629422701e+00 8.042060234487333e-16 3.215517822181119e+00
-1.324124183463898e+00 4.914861730300821e-16 2.799919998467093e+00
-1.279969953232088e+00 1.175366944399951e-16 2.826458036646042e+00
-1.279969953232087e+00 4.839655693543429e-16 2.826458036646041e+00
-1.324124183463896e+00 4.956125279461361e-16 2.799919998467092e+00
-1.591867212092231e+00 7.300797348099599e-16 3.242449999099192e+00
-1.547505048679387e+00 5.323065543291927e-16 3.269382996504366e+00
-1.547505048679385e+00 7.618398621342472e-16 3.269382996504365e+00
-1.591867212092229e+00 5.775742287778179e-16 3.242449999099191e+00
-1.279969953232088e+00 1.175366944399951e-16 2.826458036646042e+00
-1.235809525750715e+00 1.301798527478083e-16 2.853006742412723e+00
-1.235809525750714e+00 8.636757881797901e-17 2.853006742412722e+00
-1.279969953232087e+00 4.839655693543429e-16 2.826458036646041e+00
-1.547505048679387e+00 5.323065543291927e-16 3.269382996504366e+00
-1.503149986780739e+00 4.706197869352409e-16 3.296305792921195e+00
-1.503149986780737e+00 6.542070213154888e-16 3.296305792921193e+00
-1.547505048679385e+00 7.618398621342472e-16 3.269382996504365e+00
-1.235809525750715e+00 1.301798527478083e-16 2.853006742412723e+00
-1.191651613048107e+00 5.294116385750736e-17 2.879550817720946e+00
-1.191651613048106e+00 5.892185623027063e-17 2.879550817720945e+00
-1.235809525750714e+00 8.636757881797901e-17 2.853006742412722e+00
-1.503149986780739e+00 4.706197869352409e-16 3.296305792921195e+00
-1.458776334727887e+00 3.659389899321784e-16 3.323264118466076e+00
-1.458776334727885e+00 3.330667206156025e-16 3.323264118466073e+00
-1.503149986780737e+00 6.542070213154888e-16 3.296305792921193e+00
        </DataArray>
  </PointData>
  <CellData>
        <DataArray type="Float64" Name="element_id" format="ascii">
2.000000000000000e+01
2.100000000000000e+01
2.200000000000000e+01
2.300000000000000e+01
2.400000000000000e+01
2.500000000000000e+01
2.600000000000000e+01
2.700000000000000e+01
2.800000000000000e+01
2.900000000000000e+01
3.000000000000000e+01
3.100000000000000e+01
3.200000000000000e+01
3.300000000000000e+01
3.400000000000000e+01
3.500000000000000e+01
3.600000000000000e+01
3.700000000000000e+01
3.800000000000000e+01
3.900000000000000e+01
        </DataArray>
        <DataArray type="Float64" Name="element_owner" format="ascii">
1.000000000000000e+00
1.000000000000000e+00
1.000000000000000e+00
1.000000000000000e+00
1.000000000000000e+00
1.000000000000000e+00
1.000000000000000e+00
1.000000000000000e+00
1.000000000000000e+00
1.000000000000000e+00
1.000000000000000e+00
1.000000000000000e+00
1.000000000000000e+00
1.000000000000000e+00
1.000000000000000e+00
1.000000000000000e+00
1.000000000000000e+00
1.000000000000000e+00
1.000000000000000e+00
1.000000000000000e+00
        </DataArray>
      </CellData>

    </Piece>
  </UnstructuredGrid>
</VTKFile>
