<?xml version="1.0" ?> 
<!-- 
# vtk DataFile Version 3.0
-->
<VTKFile type="UnstructuredGrid" version="0.1" compressor="vtkZLibDataCompressor" byte_order="LittleEndian">
  <UnstructuredGrid>
    <FieldData>
      <DataArray type="Float64" Name="TIME" NumberOfTuples="1" format="ascii">
1e-08
      </DataArray>
    </FieldData>

    <Piece NumberOfPoints="160" NumberOfCells="20" >
      <Points>
        <DataArray type="Float64" NumberOfComponents="3" format="ascii">
0.000000000000000e+00 1.000000000000000e+00 1.000000000000000e-01
0.000000000000000e+00 1.000000000000000e+00 4.999999999999999e-02
0.000000000000000e+00 2.000000000000000e+00 4.999999999999999e-02
0.000000000000000e+00 2.000000000000000e+00 1.000000000000000e-01
5.000000000000000e-01 1.000000000000000e+00 1.000000000000000e-01
5.000000000000000e-01 1.000000000000000e+00 5.000000000000001e-02
5.000000000000001e-01 2.000000000000000e+00 5.000000000000000e-02
5.000000000000000e-01 2.000000000000000e+00 1.000000000000000e-01
0.000000000000000e+00 1.000000000000000e+00 4.999999999999999e-02
0.000000000000000e+00 1.000000000000000e+00 0.000000000000000e+00
0.000000000000000e+00 2.000000000000000e+00 0.000000000000000e+00
0.000000000000000e+00 2.000000000000000e+00 4.999999999999999e-02
5.000000000000000e-01 1.000000000000000e+00 5.000000000000001e-02
5.000000000000000e-01 1.000000000000000e+00 0.000000000000000e+00
5.000000000000000e-01 2.000000000000000e+00 0.000000000000000e+00
5.000000000000001e-01 2.000000000000000e+00 5.000000000000000e-02
0.000000000000000e+00 1.000000000000000e+00 0.000000000000000e+00
0.000000000000000e+00 1.000000000000000e+00 -5.000000000000002e-02
0.000000000000000e+00 2.000000000000000e+00 -5.000000000000002e-02
0.000000000000000e+00 2.000000000000000e+00 0.000000000000000e+00
5.000000000000000e-01 1.000000000000000e+00 0.000000000000000e+00
5.000000000000002e-01 1.000000000000000e+00 -5.000000000000002e-02
5.000000000000000e-01 2.000000000000000e+00 -5.000000000000001e-02
5.000000000000000e-01 2.000000000000000e+00 0.000000000000000e+00
0.000000000000000e+00 1.000000000000000e+00 -5.000000000000002e-02
0.000000000000000e+00 1.000000000000000e+00 -1.000000000000000e-01
0.000000000000000e+00 2.000000000000000e+00 -1.000000000000000e-01
0.000000000000000e+00 2.000000000000000e+00 -5.000000000000002e-02
5.000000000000002e-01 1.000000000000000e+00 -5.000000000000002e-02
5.000000000000000e-01 1.000000000000000e+00 -1.000000000000000e-01
5.000000000000000e-01 2.000000000000000e+00 -1.000000000000000e-01
5.000000000000000e-01 2.000000000000000e+00 -5.000000000000001e-02
5.000000000000000e-01 1.000000000000000e+00 1.000000000000000e-01
5.000000000000000e-01 1.000000000000000e+00 5.000000000000001e-02
5.000000000000001e-01 2.000000000000000e+00 5.000000000000000e-02
5.000000000000000e-01 2.000000000000000e+00 1.000000000000000e-01
1.000000000000000e+00 1.000000000000000e+00 1.000000000000000e-01
1.000000000000000e+00 1.000000000000000e+00 5.000000000000000e-02
1.000000000000000e+00 2.000000000000000e+00 5.000000000000001e-02
1.000000000000000e+00 2.000000000000000e+00 1.000000000000000e-01
5.000000000000000e-01 1.000000000000000e+00 5.000000000000001e-02
5.000000000000000e-01 1.000000000000000e+00 0.000000000000000e+00
5.000000000000000e-01 2.000000000000000e+00 0.000000000000000e+00
5.000000000000001e-01 2.000000000000000e+00 5.000000000000000e-02
1.000000000000000e+00 1.000000000000000e+00 5.000000000000000e-02
1.000000000000000e+00 1.000000000000000e+00 -6.938893903907228e-18
1.000000000000000e+00 2.000000000000000e+00 0.000000000000000e+00
1.000000000000000e+00 2.000000000000000e+00 5.000000000000001e-02
5.000000000000000e-01 1.000000000000000e+00 0.000000000000000e+00
5.000000000000002e-01 1.000000000000000e+00 -5.000000000000002e-02
5.000000000000000e-01 2.000000000000000e+00 -5.000000000000001e-02
5.000000000000000e-01 2.000000000000000e+00 0.000000000000000e+00
1.000000000000000e+00 1.000000000000000e+00 -6.938893903907228e-18
1.000000000000000e+00 1.000000000000000e+00 -5.000000000000002e-02
1.000000000000000e+00 2.000000000000000e+00 -5.000000000000002e-02
1.000000000000000e+00 2.000000000000000e+00 0.000000000000000e+00
5.000000000000002e-01 1.000000000000000e+00 -5.000000000000002e-02
5.000000000000000e-01 1.000000000000000e+00 -1.000000000000000e-01
5.000000000000000e-01 2.000000000000000e+00 -1.000000000000000e-01
5.000000000000000e-01 2.000000000000000e+00 -5.000000000000001e-02
1.000000000000000e+00 1.000000000000000e+00 -5.000000000000002e-02
1.000000000000000e+00 1.000000000000000e+00 -1.000000000000000e-01
1.000000000000000e+00 2.000000000000000e+00 -1.000000000000000e-01
1.000000000000000e+00 2.000000000000000e+00 -5.000000000000002e-02
1.000000000000000e+00 1.000000000000000e+00 1.000000000000000e-01
1.000000000000000e+00 1.000000000000000e+00 5.000000000000000e-02
1.000000000000000e+00 2.000000000000000e+00 5.000000000000001e-02
1.000000000000000e+00 2.000000000000000e+00 1.000000000000000e-01
1.500000000000000e+00 1.000000000000000e+00 1.000000000000000e-01
1.500000000000000e+00 1.000000000000000e+00 5.000000000000000e-02
1.500000000000000e+00 2.000000000000000e+00 5.000000000000003e-02
1.500000000000000e+00 2.000000000000000e+00 1.000000000000000e-01
1.000000000000000e+00 1.000000000000000e+00 5.000000000000000e-02
1.000000000000000e+00 1.000000000000000e+00 -6.938893903907228e-18
1.000000000000000e+00 2.000000000000000e+00 0.000000000000000e+00
1.000000000000000e+00 2.000000000000000e+00 5.000000000000001e-02
1.500000000000000e+00 1.000000000000000e+00 5.000000000000000e-02
1.500000000000000e+00 1.000000000000000e+00 0.000000000000000e+00
1.500000000000000e+00 2.000000000000000e+00 0.000000000000000e+00
1.500000000000000e+00 2.000000000000000e+00 5.000000000000003e-02
1.000000000000000e+00 1.000000000000000e+00 -6.938893903907228e-18
1.000000000000000e+00 1.000000000000000e+00 -5.000000000000002e-02
1.000000000000000e+00 2.000000000000000e+00 -5.000000000000002e-02
1.000000000000000e+00 2.000000000000000e+00 0.000000000000000e+00
1.500000000000000e+00 1.000000000000000e+00 0.000000000000000e+00
1.500000000000000e+00 1.000000000000000e+00 -5.000000000000002e-02
1.500000000000000e+00 2.000000000000000e+00 -5.000000000000002e-02
1.500000000000000e+00 2.000000000000000e+00 0.000000000000000e+00
1.000000000000000e+00 1.000000000000000e+00 -5.000000000000002e-02
1.000000000000000e+00 1.000000000000000e+00 -1.000000000000000e-01
1.000000000000000e+00 2.000000000000000e+00 -1.000000000000000e-01
1.000000000000000e+00 2.000000000000000e+00 -5.000000000000002e-02
1.500000000000000e+00 1.000000000000000e+00 -5.000000000000002e-02
1.500000000000000e+00 1.000000000000000e+00 -1.000000000000000e-01
1.500000000000000e+00 2.000000000000000e+00 -1.000000000000000e-01
1.500000000000000e+00 2.000000000000000e+00 -5.000000000000002e-02
1.500000000000000e+00 1.000000000000000e+00 1.000000000000000e-01
1.500000000000000e+00 1.000000000000000e+00 5.000000000000000e-02
1.500000000000000e+00 2.000000000000000e+00 5.000000000000003e-02
1.500000000000000e+00 2.000000000000000e+00 1.000000000000000e-01
2.000000000000000e+00 1.000000000000000e+00 1.000000000000000e-01
2.000000000000000e+00 1.000000000000000e+00 5.000000000000001e-02
2.000000000000000e+00 2.000000000000000e+00 5.000000000000000e-02
2.000000000000000e+00 2.000000000000000e+00 1.000000000000000e-01
1.500000000000000e+00 1.000000000000000e+00 5.000000000000000e-02
1.500000000000000e+00 1.000000000000000e+00 0.000000000000000e+00
1.500000000000000e+00 2.000000000000000e+00 0.000000000000000e+00
1.500000000000000e+00 2.000000000000000e+00 5.000000000000003e-02
2.000000000000000e+00 1.000000000000000e+00 5.000000000000001e-02
2.000000000000000e+00 1.000000000000000e+00 0.000000000000000e+00
2.000000000000000e+00 2.000000000000000e+00 3.469446951953614e-18
2.000000000000000e+00 2.000000000000000e+00 5.000000000000000e-02
1.500000000000000e+00 1.000000000000000e+00 0.000000000000000e+00
1.500000000000000e+00 1.000000000000000e+00 -5.000000000000002e-02
1.500000000000000e+00 2.000000000000000e+00 -5.000000000000002e-02
1.500000000000000e+00 2.000000000000000e+00 0.000000000000000e+00
2.000000000000000e+00 1.000000000000000e+00 0.000000000000000e+00
2.000000000000000e+00 1.000000000000000e+00 -5.000000000000000e-02
2.000000000000000e+00 2.000000000000000e+00 -5.000000000000001e-02
2.000000000000000e+00 2.000000000000000e+00 3.469446951953614e-18
1.500000000000000e+00 1.000000000000000e+00 -5.000000000000002e-02
1.500000000000000e+00 1.000000000000000e+00 -1.000000000000000e-01
1.500000000000000e+00 2.000000000000000e+00 -1.000000000000000e-01
1.500000000000000e+00 2.000000000000000e+00 -5.000000000000002e-02
2.000000000000000e+00 1.000000000000000e+00 -5.000000000000000e-02
2.000000000000000e+00 1.000000000000000e+00 -1.000000000000000e-01
2.000000000000000e+00 2.000000000000000e+00 -1.000000000000000e-01
2.000000000000000e+00 2.000000000000000e+00 -5.000000000000001e-02
2.000000000000000e+00 1.000000000000000e+00 1.000000000000000e-01
2.000000000000000e+00 1.000000000000000e+00 5.000000000000001e-02
2.000000000000000e+00 2.000000000000000e+00 5.000000000000000e-02
2.000000000000000e+00 2.000000000000000e+00 1.000000000000000e-01
2.500000000000000e+00 1.000000000000000e+00 1.000000000000000e-01
2.500000000000000e+00 1.000000000000000e+00 5.000000000000000e-02
2.500000000000000e+00 2.000000000000000e+00 5.000000000000000e-02
2.500000000000000e+00 2.000000000000000e+00 1.000000000000000e-01
2.000000000000000e+00 1.000000000000000e+00 5.000000000000001e-02
2.000000000000000e+00 1.000000000000000e+00 0.000000000000000e+00
2.000000000000000e+00 2.000000000000000e+00 3.469446951953614e-18
2.000000000000000e+00 2.000000000000000e+00 5.000000000000000e-02
2.500000000000000e+00 1.000000000000000e+00 5.000000000000000e-02
2.500000000000000e+00 1.000000000000000e+00 0.000000000000000e+00
2.500000000000000e+00 2.000000000000000e+00 0.000000000000000e+00
2.500000000000000e+00 2.000000000000000e+00 5.000000000000000e-02
2.000000000000000e+00 1.000000000000000e+00 0.000000000000000e+00
2.000000000000000e+00 1.000000000000000e+00 -5.000000000000000e-02
2.000000000000000e+00 2.000000000000000e+00 -5.000000000000001e-02
2.000000000000000e+00 2.000000000000000e+00 3.469446951953614e-18
2.500000000000000e+00 1.000000000000000e+00 0.000000000000000e+00
2.500000000000000e+00 1.000000000000000e+00 -5.000000000000002e-02
2.500000000000000e+00 2.000000000000000e+00 -5.000000000000002e-02
2.500000000000000e+00 2.000000000000000e+00 0.000000000000000e+00
2.000000000000000e+00 1.000000000000000e+00 -5.000000000000000e-02
2.000000000000000e+00 1.000000000000000e+00 -1.000000000000000e-01
2.000000000000000e+00 2.000000000000000e+00 -1.000000000000000e-01
2.000000000000000e+00 2.000000000000000e+00 -5.000000000000001e-02
2.500000000000000e+00 1.000000000000000e+00 -5.000000000000002e-02
2.500000000000000e+00 1.000000000000000e+00 -1.000000000000000e-01
2.500000000000000e+00 2.000000000000000e+00 -1.000000000000000e-01
2.500000000000000e+00 2.000000000000000e+00 -5.000000000000002e-02
        </DataArray>
      </Points>

      <Cells>
        <DataArray type="Int32" Name="connectivity" format="ascii">
0 1 2 3 4 5 6 7 8 9 10 11 12 13 14 15 16 17 18 19 20 21 22 23 24 25 26 27 28 29 30 31 32 33 34 35 36 37 38 39 40 41 42 43 44 45 46 47 48 49 50 51 52 53 54 55 56 57 58 59 60 61 62 63 64 65 66 67 68 69 70 71 72 73 74 75 76 77 78 79 80 81 82 83 84 85 86 87 88 89 90 91 92 93 94 95 96 97 98 99 100 101 102 103 104 105 106 107 108 109 110 111 112 113 114 115 116 117 118 119 120 121 122 123 124 125 126 127 128 129 130 131 132 133 134 135 136 137 138 139 140 141 142 143 144 145 146 147 148 149 150 151 152 153 154 155 156 157 158 159 
        </DataArray>
        <DataArray type="Int32" Name="offsets" format="ascii">
8 16 24 32 40 48 56 64 72 80 88 96 104 112 120 128 136 144 152 160 
        </DataArray>
        <DataArray type="UInt8" Name="types" format="ascii">
12 12 12 12 12 12 12 12 12 12 12 12 12 12 12 12 12 12 12 12 
        </DataArray>
      </Cells>

  <PointData>
        <DataArray type="Float64" Name="displacement" NumberOfComponents="3" format="ascii">
-8.704107044991392e-02 -1.802323663203283e-13 4.662420669317502e-01
-7.036334674943703e-02 -1.283910797215127e-13 4.688500943681671e-01
-7.036334674966366e-02 -1.281704419133698e-13 4.688500943691886e-01
-8.704107045015372e-02 -1.806943762018150e-13 4.662420669327678e-01
-1.193666882967049e-01 -2.554655141822722e-13 6.408827968910005e-01
-1.009072521854749e-01 -1.972258607767983e-13 6.440291518022508e-01
-1.009072521857371e-01 -1.967720850418385e-13 6.440291518034004e-01
-1.193666882969779e-01 -2.554484408448715e-13 6.408827968921467e-01
-7.036334674943703e-02 -1.283910797215127e-13 4.688500943681671e-01
-5.370185315397535e-02 -7.626039453867445e-14 4.714541251997070e-01
-5.370185315418960e-02 -7.621067167821237e-14 4.714541252007320e-01
-7.036334674966366e-02 -1.281704419133698e-13 4.688500943691886e-01
-1.009072521854749e-01 -1.972258607767983e-13 6.440291518022508e-01
-8.245599978800555e-02 -1.384872216673128e-13 6.471731406775920e-01
-8.245599978825738e-02 -1.383149966440775e-13 6.471731406787448e-01
-1.009072521857371e-01 -1.967720850418385e-13 6.440291518034004e-01
-5.370185315397535e-02 -7.626039453867445e-14 4.714541251997070e-01
-3.704355168131487e-02 -2.442168601291599e-14 4.740570389745072e-01
-3.704355168151678e-02 -2.416986818644841e-14 4.740570389755360e-01
-5.370185315418960e-02 -7.621067167821237e-14 4.714541252007320e-01
-8.245599978800555e-02 -1.384872216673128e-13 6.471731406775920e-01
-6.400746571004270e-02 -7.983064472106893e-14 6.503160944631102e-01
-6.400746571028414e-02 -8.012883143453412e-14 6.503160944642662e-01
-8.245599978825738e-02 -1.383149966440775e-13 6.471731406787448e-01
-3.704355168131487e-02 -2.442168601291599e-14 4.740570389745072e-01
-2.037750278107522e-02 2.797140215391274e-14 4.766610469186616e-01
-2.037750278126399e-02 2.776182336000447e-14 4.766610469196943e-01
-3.704355168151678e-02 -2.416986818644841e-14 4.740570389755360e-01
-6.400746571004270e-02 -7.983064472106893e-14 6.503160944631102e-01
-4.555465892064673e-02 -2.128903957545942e-14 6.534598298057522e-01
-4.555465892087736e-02 -2.122314918243313e-14 6.534598298069115e-01
-6.400746571028414e-02 -8.012883143453412e-14 6.503160944642662e-01
-1.193666882967049e-01 -2.554655141822722e-13 6.408827968910005e-01
-1.009072521854749e-01 -1.972258607767983e-13 6.440291518022508e-01
-1.009072521857371e-01 -1.967720850418385e-13 6.440291518034004e-01
-1.193666882969779e-01 -2.554484408448715e-13 6.408827968921467e-01
-1.556845432796303e-01 -3.453341618233984e-13 8.314462769688336e-01
-1.358672174952318e-01 -2.813213981976773e-13 8.350239614621847e-01
-1.358672174955262e-01 -2.811293167382337e-13 8.350239614634453e-01
-1.556845432799354e-01 -3.455471076116368e-13 8.314462769700905e-01
-1.009072521854749e-01 -1.972258607767983e-13 6.440291518022508e-01
-8.245599978800555e-02 -1.384872216673128e-13 6.471731406775920e-01
-8.245599978825738e-02 -1.383149966440775e-13 6.471731406787448e-01
-1.009072521857371e-01 -1.967720850418385e-13 6.440291518034004e-01
-1.358672174952318e-01 -2.813213981976773e-13 8.350239614621847e-01
-1.160629295995466e-01 -2.171209858276114e-13 8.385973590166765e-01
-1.160629295998309e-01 -2.170531034493157e-13 8.385973590179405e-01
-1.358672174955262e-01 -2.811293167382337e-13 8.350239614634453e-01
-8.245599978800555e-02 -1.384872216673128e-13 6.471731406775920e-01
-6.400746571004270e-02 -7.983064472106893e-14 6.503160944631102e-01
-6.400746571028414e-02 -8.012883143453412e-14 6.503160944642662e-01
-8.245599978825738e-02 -1.383149966440775e-13 6.471731406787448e-01
-1.160629295995466e-01 -2.171209858276114e-13 8.385973590166765e-01
-9.626110789884003e-02 -1.529185002963239e-13 8.421696797420286e-01
-9.626110789911417e-02 -1.528852341998852e-13 8.421696797432963e-01
-1.160629295998309e-01 -2.170531034493157e-13 8.385973590179405e-01
-6.400746571004270e-02 -7.983064472106893e-14 6.503160944631102e-01
-4.555465892064673e-02 -2.128903957545942e-14 6.534598298057522e-01
-4.555465892087736e-02 -2.122314918243313e-14 6.534598298069115e-01
-6.400746571028414e-02 -8.012883143453412e-14 6.503160944642662e-01
-9.626110789884003e-02 -1.529185002963239e-13 8.421696797420286e-01
-7.645219928188661e-02 -8.857435235366835e-14 8.457437640142333e-01
-7.645219928215027e-02 -8.870872625489979e-14 8.457437640155046e-01
-9.626110789911417e-02 -1.528852341998852e-13 8.421696797432963e-01
-1.556845432796303e-01 -3.453341618233984e-13 8.314462769688336e-01
-1.358672174952318e-01 -2.813213981976773e-13 8.350239614621847e-01
-1.358672174955262e-01 -2.811293167382337e-13 8.350239614634453e-01
-1.556845432799354e-01 -3.455471076116368e-13 8.314462769700905e-01
-1.948866513233009e-01 -4.512449634044144e-13 1.033762018395886e+00
-1.741254585559403e-01 -3.810866887214697e-13 1.037647961000309e+00
-1.741254585562720e-01 -3.807543011882516e-13 1.037647961001693e+00
-1.948866513236445e-01 -4.514706205917993e-13 1.033762018397267e+00
-1.358672174952318e-01 -2.813213981976773e-13 8.350239614621847e-01
-1.160629295995466e-01 -2.171209858276114e-13 8.385973590166765e-01
-1.160629295998309e-01 -2.170531034493157e-13 8.385973590179405e-01
-1.358672174955262e-01 -2.811293167382337e-13 8.350239614634453e-01
-1.741254585559403e-01 -3.810866887214697e-13 1.037647961000309e+00
-1.533715593187230e-01 -3.105956978564089e-13 1.041531293741401e+00
-1.533715593190436e-01 -3.106370881324456e-13 1.041531293742788e+00
-1.741254585562720e-01 -3.807543011882516e-13 1.037647961001693e+00
-1.160629295995466e-01 -2.171209858276114e-13 8.385973590166765e-01
-9.626110789884003e-02 -1.529185002963239e-13 8.421696797420286e-01
-9.626110789911417e-02 -1.528852341998852e-13 8.421696797432963e-01
-1.160629295998309e-01 -2.170531034493157e-13 8.385973590179405e-01
-1.533715593187230e-01 -3.105956978564089e-13 1.041531293741401e+00
-1.326194902506190e-01 -2.403158915341524e-13 1.045413871799905e+00
-1.326194902509283e-01 -2.398105769749218e-13 1.045413871801296e+00
-1.533715593190436e-01 -3.106370881324456e-13 1.041531293742788e+00
-9.626110789884003e-02 -1.529185002963239e-13 8.421696797420286e-01
-7.645219928188661e-02 -8.857435235366835e-14 8.457437640142333e-01
-7.645219928215027e-02 -8.870872625489979e-14 8.457437640155046e-01
-9.626110789911417e-02 -1.528852341998852e-13 8.421696797432963e-01
-1.326194902506190e-01 -2.403158915341524e-13 1.045413871799905e+00
-1.118630470179432e-01 -1.696264758774758e-13 1.049297728074761e+00
-1.118630470182404e-01 -1.698522827857346e-13 1.049297728076155e+00
-1.326194902509283e-01 -2.398105769749218e-13 1.045413871801296e+00
-1.948866513233009e-01 -4.512449634044144e-13 1.033762018395886e+00
-1.741254585559403e-01 -3.810866887214697e-13 1.037647961000309e+00
-1.741254585562720e-01 -3.807543011882516e-13 1.037647961001693e+00
-1.948866513236445e-01 -4.514706205917993e-13 1.033762018397267e+00
-2.358010471223546e-01 -5.668567372042529e-13 1.243871703257455e+00
-2.144766007599664e-01 -4.917617677128285e-13 1.247944665701894e+00
-2.144766007603163e-01 -4.915601450540283e-13 1.247944665703378e+00
-2.358010471227080e-01 -5.671214427242112e-13 1.243871703258937e+00
-1.741254585559403e-01 -3.810866887214697e-13 1.037647961000309e+00
-1.533715593187230e-01 -3.105956978564089e-13 1.041531293741401e+00
-1.533715593190436e-01 -3.106370881324456e-13 1.041531293742788e+00
-1.741254585562720e-01 -3.807543011882516e-13 1.037647961001693e+00
-2.144766007599664e-01 -4.917617677128285e-13 1.247944665701894e+00
-1.931623979836884e-01 -4.163226479387275e-13 1.252013998678037e+00
-1.931623979840352e-01 -4.162704703746166e-13 1.252013998679523e+00
-2.144766007603163e-01 -4.915601450540283e-13 1.247944665703378e+00
-1.533715593187230e-01 -3.105956978564089e-13 1.041531293741401e+00
-1.326194902506190e-01 -2.403158915341524e-13 1.045413871799905e+00
-1.326194902509283e-01 -2.398105769749218e-13 1.045413871801296e+00
-1.533715593190436e-01 -3.106370881324456e-13 1.041531293742788e+00
-1.931623979836884e-01 -4.163226479387275e-13 1.252013998678037e+00
-1.718490066647954e-01 -3.411047863994637e-13 1.256082749437947e+00
-1.718490066651387e-01 -3.412541256453878e-13 1.256082749439434e+00
-1.931623979840352e-01 -4.162704703746166e-13 1.252013998679523e+00
-1.326194902506190e-01 -2.403158915341524e-13 1.045413871799905e+00
-1.118630470179432e-01 -1.696264758774758e-13 1.049297728074761e+00
-1.118630470182404e-01 -1.698522827857346e-13 1.049297728076155e+00
-1.326194902509283e-01 -2.398105769749218e-13 1.045413871801296e+00
-1.718490066647954e-01 -3.411047863994637e-13 1.256082749437947e+00
-1.505276167924040e-01 -2.656845084775338e-13 1.260154089615629e+00
-1.505276167927433e-01 -2.655661849785943e-13 1.260154089617118e+00
-1.718490066651387e-01 -3.412541256453878e-13 1.256082749439434e+00
-2.358010471223546e-01 -5.668567372042529e-13 1.243871703257455e+00
-2.144766007599664e-01 -4.917617677128285e-13 1.247944665701894e+00
-2.144766007603163e-01 -4.915601450540283e-13 1.247944665703378e+00
-2.358010471227080e-01 -5.671214427242112e-13 1.243871703258937e+00
-2.772044958509755e-01 -6.766485518629106e-13 1.457970071274657e+00
-2.556976974802321e-01 -6.025357189677080e-13 1.462103297302153e+00
-2.556976974805777e-01 -6.022255382986763e-13 1.462103297303626e+00
-2.772044958513169e-01 -6.773701774515435e-13 1.457970071276131e+00
-2.144766007599664e-01 -4.917617677128285e-13 1.247944665701894e+00
-1.931623979836884e-01 -4.163226479387275e-13 1.252013998678037e+00
-1.931623979840352e-01 -4.162704703746166e-13 1.252013998679523e+00
-2.144766007603163e-01 -4.915601450540283e-13 1.247944665703378e+00
-2.556976974802321e-01 -6.025357189677080e-13 1.462103297302153e+00
-2.341965927627588e-01 -5.274859757375996e-13 1.466234501576778e+00
-2.341965927631082e-01 -5.274653768779821e-13 1.466234501578250e+00
-2.556976974805777e-01 -6.022255382986763e-13 1.462103297303626e+00
-1.931623979836884e-01 -4.163226479387275e-13 1.252013998678037e+00
-1.718490066647954e-01 -3.411047863994637e-13 1.256082749437947e+00
-1.718490066651387e-01 -3.412541256453878e-13 1.256082749439434e+00
-1.931623979840352e-01 -4.162704703746166e-13 1.252013998679523e+00
-2.341965927627588e-01 -5.274859757375996e-13 1.466234501576778e+00
-2.126958206943399e-01 -4.523939847848219e-13 1.470366299034859e+00
-2.126958206946927e-01 -4.526214920260574e-13 1.470366299036331e+00
-2.341965927631082e-01 -5.274653768779821e-13 1.466234501578250e+00
-1.718490066647954e-01 -3.411047863994637e-13 1.256082749437947e+00
-1.505276167924040e-01 -2.656845084775338e-13 1.260154089615629e+00
-1.505276167927433e-01 -2.655661849785943e-13 1.260154089617118e+00
-1.718490066651387e-01 -3.412541256453878e-13 1.256082749439434e+00
-2.126958206943399e-01 -4.523939847848219e-13 1.470366299034859e+00
-1.911891218331849e-01 -3.774787318932795e-13 1.474500222744710e+00
-1.911891218335422e-01 -3.779098104820416e-13 1.474500222746181e+00
-2.126958206946927e-01 -4.526214920260574e-13 1.470366299036331e+00
        </DataArray>
  </PointData>
  <CellData>
        <DataArray type="Float64" Name="element_gid" format="ascii">
2.000000000000000e+01
2.100000000000000e+01
2.200000000000000e+01
2.300000000000000e+01
2.400000000000000e+01
2.500000000000000e+01
2.600000000000000e+01
2.700000000000000e+01
2.800000000000000e+01
2.900000000000000e+01
3.000000000000000e+01
3.100000000000000e+01
3.200000000000000e+01
3.300000000000000e+01
3.400000000000000e+01
3.500000000000000e+01
3.600000000000000e+01
3.700000000000000e+01
3.800000000000000e+01
3.900000000000000e+01
        </DataArray>
        <DataArray type="Float64" Name="element_owner" format="ascii">
1.000000000000000e+00
1.000000000000000e+00
1.000000000000000e+00
1.000000000000000e+00
1.000000000000000e+00
1.000000000000000e+00
1.000000000000000e+00
1.000000000000000e+00
1.000000000000000e+00
1.000000000000000e+00
1.000000000000000e+00
1.000000000000000e+00
1.000000000000000e+00
1.000000000000000e+00
1.000000000000000e+00
1.000000000000000e+00
1.000000000000000e+00
1.000000000000000e+00
1.000000000000000e+00
1.000000000000000e+00
        </DataArray>
      </CellData>

    </Piece>
  </UnstructuredGrid>
</VTKFile>
