<?xml version="1.0" ?> 
<!-- 
# vtk DataFile Version 3.0
-->
<VTKFile type="UnstructuredGrid" version="0.1" compressor="vtkZLibDataCompressor" byte_order="LittleEndian">
  <UnstructuredGrid>
    <FieldData>
      <DataArray type="Float64" Name="TIME" NumberOfTuples="1" format="ascii">
1.000000000000000e+01 
      </DataArray>
    </FieldData>

    <Piece NumberOfPoints="304" NumberOfCells="31" >
      <Points>
        <DataArray type="Float64" NumberOfComponents="3" format="ascii">
0.000000000000000e+00 0.000000000000000e+00 0.000000000000000e+00
1.000000000000000e+00 0.000000000000000e+00 0.000000000000000e+00
1.000000000000000e+00 1.000000000000000e+00 0.000000000000000e+00
0.000000000000000e+00 1.000000000000000e+00 0.000000000000000e+00
0.000000000000000e+00 0.000000000000000e+00 1.000000000000000e+00
1.000000000000000e+00 0.000000000000000e+00 1.000000000000000e+00
1.000000000000000e+00 1.000000000000000e+00 1.000000000000000e+00
0.000000000000000e+00 1.000000000000000e+00 1.000000000000000e+00
1.000000000000000e+00 0.000000000000000e+00 0.000000000000000e+00
2.000000000000000e+00 0.000000000000000e+00 0.000000000000000e+00
2.000000000000000e+00 1.000000000000000e+00 0.000000000000000e+00
1.000000000000000e+00 1.000000000000000e+00 0.000000000000000e+00
1.000000000000000e+00 0.000000000000000e+00 1.000000000000000e+00
2.000000000000000e+00 0.000000000000000e+00 1.000000000000000e+00
2.000000000000000e+00 1.000000000000000e+00 1.000000000000000e+00
1.000000000000000e+00 1.000000000000000e+00 1.000000000000000e+00
2.000000000000000e+00 0.000000000000000e+00 0.000000000000000e+00
3.000000000000000e+00 0.000000000000000e+00 0.000000000000000e+00
3.000000000000000e+00 1.000000000000000e+00 0.000000000000000e+00
2.000000000000000e+00 1.000000000000000e+00 0.000000000000000e+00
2.000000000000000e+00 0.000000000000000e+00 1.000000000000000e+00
3.000000000000000e+00 0.000000000000000e+00 1.000000000000000e+00
3.000000000000000e+00 1.000000000000000e+00 1.000000000000000e+00
2.000000000000000e+00 1.000000000000000e+00 1.000000000000000e+00
0.000000000000000e+00 1.500000000000000e+00 1.000000000000000e+00
0.000000000000000e+00 1.500000000000000e+00 0.000000000000000e+00
0.000000000000000e+00 2.000000000000000e+00 5.000000000000000e-01
5.000000000000000e-01 1.500000000000000e+00 5.000000000000000e-01
0.000000000000000e+00 1.500000000000000e+00 5.000000000000000e-01
0.000000000000000e+00 1.750000000000000e+00 2.500000000000000e-01
0.000000000000000e+00 1.750000000000000e+00 7.500000000000000e-01
2.500000000000000e-01 1.500000000000000e+00 7.500000000000000e-01
2.500000000000000e-01 1.500000000000000e+00 2.500000000000000e-01
2.500000000000000e-01 1.750000000000000e+00 5.000000000000000e-01
0.000000000000000e+00 1.500000000000000e+00 0.000000000000000e+00
0.000000000000000e+00 2.500000000000000e+00 0.000000000000000e+00
0.000000000000000e+00 2.000000000000000e+00 5.000000000000000e-01
5.000000000000000e-01 2.000000000000000e+00 0.000000000000000e+00
0.000000000000000e+00 2.000000000000000e+00 0.000000000000000e+00
0.000000000000000e+00 2.250000000000000e+00 2.500000000000000e-01
0.000000000000000e+00 1.750000000000000e+00 2.500000000000000e-01
2.500000000000000e-01 1.750000000000000e+00 0.000000000000000e+00
2.500000000000000e-01 2.250000000000000e+00 0.000000000000000e+00
2.500000000000000e-01 2.000000000000000e+00 2.500000000000000e-01
0.000000000000000e+00 2.500000000000000e+00 0.000000000000000e+00
0.000000000000000e+00 2.500000000000000e+00 1.000000000000000e+00
0.000000000000000e+00 2.000000000000000e+00 5.000000000000000e-01
5.000000000000000e-01 2.500000000000000e+00 5.000000000000000e-01
0.000000000000000e+00 2.500000000000000e+00 5.000000000000000e-01
0.000000000000000e+00 2.250000000000000e+00 7.500000000000000e-01
0.000000000000000e+00 2.250000000000000e+00 2.500000000000000e-01
2.500000000000000e-01 2.500000000000000e+00 2.500000000000000e-01
2.500000000000000e-01 2.500000000000000e+00 7.500000000000000e-01
2.500000000000000e-01 2.250000000000000e+00 5.000000000000000e-01
0.000000000000000e+00 2.500000000000000e+00 1.000000000000000e+00
0.000000000000000e+00 1.500000000000000e+00 1.000000000000000e+00
0.000000000000000e+00 2.000000000000000e+00 5.000000000000000e-01
5.000000000000000e-01 2.000000000000000e+00 1.000000000000000e+00
0.000000000000000e+00 2.000000000000000e+00 1.000000000000000e+00
0.000000000000000e+00 1.750000000000000e+00 7.500000000000000e-01
0.000000000000000e+00 2.250000000000000e+00 7.500000000000000e-01
2.500000000000000e-01 2.250000000000000e+00 1.000000000000000e+00
2.500000000000000e-01 1.750000000000000e+00 1.000000000000000e+00
2.500000000000000e-01 2.000000000000000e+00 7.500000000000000e-01
0.000000000000000e+00 1.500000000000000e+00 1.000000000000000e+00
1.000000000000000e+00 1.500000000000000e+00 1.000000000000000e+00
5.000000000000000e-01 1.500000000000000e+00 5.000000000000000e-01
5.000000000000000e-01 2.000000000000000e+00 1.000000000000000e+00
5.000000000000000e-01 1.500000000000000e+00 1.000000000000000e+00
7.500000000000000e-01 1.500000000000000e+00 7.500000000000000e-01
2.500000000000000e-01 1.500000000000000e+00 7.500000000000000e-01
2.500000000000000e-01 1.750000000000000e+00 1.000000000000000e+00
7.500000000000000e-01 1.750000000000000e+00 1.000000000000000e+00
5.000000000000000e-01 1.750000000000000e+00 7.500000000000000e-01
0.000000000000000e+00 1.500000000000000e+00 0.000000000000000e+00
1.000000000000000e+00 1.500000000000000e+00 0.000000000000000e+00
5.000000000000000e-01 2.000000000000000e+00 0.000000000000000e+00
5.000000000000000e-01 1.500000000000000e+00 5.000000000000000e-01
5.000000000000000e-01 1.500000000000000e+00 0.000000000000000e+00
7.500000000000000e-01 1.750000000000000e+00 0.000000000000000e+00
2.500000000000000e-01 1.750000000000000e+00 0.000000000000000e+00
2.500000000000000e-01 1.500000000000000e+00 2.500000000000000e-01
7.500000000000000e-01 1.500000000000000e+00 2.500000000000000e-01
5.000000000000000e-01 1.750000000000000e+00 2.500000000000000e-01
0.000000000000000e+00 2.500000000000000e+00 0.000000000000000e+00
1.000000000000000e+00 2.500000000000000e+00 0.000000000000000e+00
5.000000000000000e-01 2.500000000000000e+00 5.000000000000000e-01
5.000000000000000e-01 2.000000000000000e+00 0.000000000000000e+00
5.000000000000000e-01 2.500000000000000e+00 0.000000000000000e+00
7.500000000000000e-01 2.500000000000000e+00 2.500000000000000e-01
2.500000000000000e-01 2.500000000000000e+00 2.500000000000000e-01
2.500000000000000e-01 2.250000000000000e+00 0.000000000000000e+00
7.500000000000000e-01 2.250000000000000e+00 0.000000000000000e+00
5.000000000000000e-01 2.250000000000000e+00 2.500000000000000e-01
0.000000000000000e+00 2.500000000000000e+00 1.000000000000000e+00
1.000000000000000e+00 2.500000000000000e+00 1.000000000000000e+00
5.000000000000000e-01 2.000000000000000e+00 1.000000000000000e+00
5.000000000000000e-01 2.500000000000000e+00 5.000000000000000e-01
5.000000000000000e-01 2.500000000000000e+00 1.000000000000000e+00
7.500000000000000e-01 2.250000000000000e+00 1.000000000000000e+00
2.500000000000000e-01 2.250000000000000e+00 1.000000000000000e+00
2.500000000000000e-01 2.500000000000000e+00 7.500000000000000e-01
7.500000000000000e-01 2.500000000000000e+00 7.500000000000000e-01
5.000000000000000e-01 2.250000000000000e+00 7.500000000000000e-01
1.000000000000000e+00 1.500000000000000e+00 1.000000000000000e+00
1.000000000000000e+00 1.500000000000000e+00 0.000000000000000e+00
5.000000000000000e-01 1.500000000000000e+00 5.000000000000000e-01
1.000000000000000e+00 2.000000000000000e+00 5.000000000000000e-01
1.000000000000000e+00 1.500000000000000e+00 5.000000000000000e-01
7.500000000000000e-01 1.500000000000000e+00 2.500000000000000e-01
7.500000000000000e-01 1.500000000000000e+00 7.500000000000000e-01
1.000000000000000e+00 1.750000000000000e+00 7.500000000000000e-01
1.000000000000000e+00 1.750000000000000e+00 2.500000000000000e-01
7.500000000000000e-01 1.750000000000000e+00 5.000000000000000e-01
1.000000000000000e+00 1.500000000000000e+00 0.000000000000000e+00
1.000000000000000e+00 2.500000000000000e+00 0.000000000000000e+00
5.000000000000000e-01 2.000000000000000e+00 0.000000000000000e+00
1.000000000000000e+00 2.000000000000000e+00 5.000000000000000e-01
1.000000000000000e+00 2.000000000000000e+00 0.000000000000000e+00
7.500000000000000e-01 2.250000000000000e+00 0.000000000000000e+00
7.500000000000000e-01 1.750000000000000e+00 0.000000000000000e+00
1.000000000000000e+00 1.750000000000000e+00 2.500000000000000e-01
1.000000000000000e+00 2.250000000000000e+00 2.500000000000000e-01
7.500000000000000e-01 2.000000000000000e+00 2.500000000000000e-01
1.000000000000000e+00 2.500000000000000e+00 0.000000000000000e+00
1.000000000000000e+00 2.500000000000000e+00 1.000000000000000e+00
5.000000000000000e-01 2.500000000000000e+00 5.000000000000000e-01
1.000000000000000e+00 2.000000000000000e+00 5.000000000000000e-01
1.000000000000000e+00 2.500000000000000e+00 5.000000000000000e-01
7.500000000000000e-01 2.500000000000000e+00 7.500000000000000e-01
7.500000000000000e-01 2.500000000000000e+00 2.500000000000000e-01
1.000000000000000e+00 2.250000000000000e+00 2.500000000000000e-01
1.000000000000000e+00 2.250000000000000e+00 7.500000000000000e-01
7.500000000000000e-01 2.250000000000000e+00 5.000000000000000e-01
1.000000000000000e+00 2.500000000000000e+00 1.000000000000000e+00
1.000000000000000e+00 1.500000000000000e+00 1.000000000000000e+00
5.000000000000000e-01 2.000000000000000e+00 1.000000000000000e+00
1.000000000000000e+00 2.000000000000000e+00 5.000000000000000e-01
1.000000000000000e+00 2.000000000000000e+00 1.000000000000000e+00
7.500000000000000e-01 1.750000000000000e+00 1.000000000000000e+00
7.500000000000000e-01 2.250000000000000e+00 1.000000000000000e+00
1.000000000000000e+00 2.250000000000000e+00 7.500000000000000e-01
1.000000000000000e+00 1.750000000000000e+00 7.500000000000000e-01
7.500000000000000e-01 2.000000000000000e+00 7.500000000000000e-01
[...]
  <PointData>
        <DataArray type="Float64" Name="current_reference_density" format="ascii">
1.059107550805164e+00
1.059438896537300e+00
1.060684479931766e+00
1.060024433051528e+00
1.060930587977297e+00
1.061909833361649e+00
1.063114820669714e+00
1.061826123140086e+00
1.059438896537300e+00
1.059770242269434e+00
1.061344526812009e+00
1.060684479931766e+00
1.061909833361649e+00
1.062889078746002e+00
1.064403518199340e+00
1.063114820669714e+00
1.059770242269434e+00
0.000000000000000e+00
0.000000000000000e+00
1.061344526812009e+00
1.062889078746002e+00
0.000000000000000e+00
0.000000000000000e+00
1.064403518199340e+00
1.093826402284138e+00
1.089794660710457e+00
1.115405807230750e+00
1.090439343255122e+00
1.103321865651031e+00
1.115611544929721e+00
1.119706619696266e+00
1.075216499916644e+00
1.074962469750100e+00
1.087116964219422e+00
1.089794660710457e+00
1.091786231550322e+00
1.115405807230750e+00
1.089207186417484e+00
1.102494980196846e+00
1.117628598171735e+00
1.115611544929721e+00
1.074900298513141e+00
1.075006171879293e+00
1.085677497007126e+00
1.091786231550322e+00
1.095917378834258e+00
1.115405807230750e+00
1.092858905162207e+00
1.105087277672800e+00
1.121876834893700e+00
1.117628598171735e+00
1.075189866737573e+00
1.075533719199526e+00
1.089915657293763e+00
1.095917378834258e+00
1.093826402284138e+00
1.115405807230750e+00
1.094053131157168e+00
1.106012063432612e+00
1.119706619696266e+00
1.121876834893700e+00
1.075620868131195e+00
1.075426922672515e+00
1.091264832214131e+00
1.093826402284138e+00
1.104538075955416e+00
1.090439343255122e+00
1.094053131157168e+00
1.096443690627457e+00
1.119438561662665e+00
1.075216499916644e+00
1.075426922672515e+00
1.125155209793006e+00
1.110941856837143e+00
1.089794660710457e+00
1.081765643515695e+00
1.089207186417484e+00
1.090439343255122e+00
1.078402188009941e+00
1.112335964492092e+00
1.074900298513141e+00
1.074962469750100e+00
1.114162916427435e+00
1.109295264297327e+00
1.091786231550322e+00
1.093298939818610e+00
1.092858905162207e+00
1.089207186417484e+00
1.087596226916078e+00
1.120550110729013e+00
1.075189866737573e+00
1.075006171879293e+00
1.114958991595324e+00
1.110064407385377e+00
1.095917378834258e+00
1.115571216140543e+00
1.094053131157168e+00
1.092858905162207e+00
1.104984879453808e+00
1.127885700983549e+00
1.075620868131195e+00
1.075533719199526e+00
1.125936830865759e+00
1.111939922787946e+00
1.104538075955416e+00
1.081765643515695e+00
1.090439343255122e+00
0.000000000000000e+00
0.000000000000000e+00
1.114162916427435e+00
1.119438561662665e+00
0.000000000000000e+00
0.000000000000000e+00
0.000000000000000e+00
1.081765643515695e+00
1.093298939818610e+00
1.089207186417484e+00
0.000000000000000e+00
0.000000000000000e+00
1.114958991595324e+00
1.112335964492092e+00
0.000000000000000e+00
0.000000000000000e+00
0.000000000000000e+00
1.093298939818610e+00
1.115571216140543e+00
1.092858905162207e+00
0.000000000000000e+00
0.000000000000000e+00
1.125936830865759e+00
1.120550110729013e+00
0.000000000000000e+00
0.000000000000000e+00
0.000000000000000e+00
1.115571216140543e+00
1.104538075955416e+00
1.094053131157168e+00
0.000000000000000e+00
0.000000000000000e+00
1.125155209793006e+00
1.127885700983549e+00
0.000000000000000e+00
0.000000000000000e+00
0.000000000000000e+00
1.115405807230750e+00
1.090439343255122e+00
1.094053131157168e+00
1.093826402284138e+00
1.087116964219422e+00
1.110941856837143e+00
1.091264832214131e+00
1.119706619696266e+00
1.075216499916644e+00
1.075426922672515e+00
1.115405807230750e+00
1.089207186417484e+00
1.090439343255122e+00
1.089794660710457e+00
1.085677497007126e+00
1.109295264297327e+00
1.087116964219422e+00
1.115611544929721e+00
1.074900298513141e+00
1.074962469750100e+00
1.115405807230750e+00
1.092858905162207e+00
1.089207186417484e+00
1.091786231550322e+00
1.089915657293763e+00
1.110064407385377e+00
1.085677497007126e+00
1.117628598171735e+00
1.075189866737573e+00
1.075006171879293e+00
1.115405807230750e+00
1.094053131157168e+00
1.092858905162207e+00
1.095917378834258e+00
1.091264832214131e+00
1.111939922787946e+00
1.089915657293763e+00
1.121876834893700e+00
1.075620868131195e+00
1.075533719199526e+00
0.000000000000000e+00
1.094053131157168e+00
1.090439343255122e+00
1.104538075955416e+00
0.000000000000000e+00
1.110941856837143e+00
0.000000000000000e+00
0.000000000000000e+00
1.125155209793006e+00
1.119438561662665e+00
0.000000000000000e+00
1.090439343255122e+00
1.089207186417484e+00
1.081765643515695e+00
0.000000000000000e+00
1.109295264297327e+00
0.000000000000000e+00
0.000000000000000e+00
1.114162916427435e+00
1.112335964492092e+00
0.000000000000000e+00
1.089207186417484e+00
1.092858905162207e+00
1.093298939818610e+00
0.000000000000000e+00
1.110064407385377e+00
0.000000000000000e+00
0.000000000000000e+00
1.114958991595324e+00
1.120550110729013e+00
0.000000000000000e+00
1.092858905162207e+00
1.094053131157168e+00
1.115571216140543e+00
0.000000000000000e+00
1.111939922787946e+00
0.000000000000000e+00
0.000000000000000e+00
1.125936830865759e+00
1.127885700983549e+00
1.115405807230750e+00
1.094053131157168e+00
1.090439343255122e+00
1.089458294729939e+00
1.091264832214131e+00
1.110941856837143e+00
1.087116964219422e+00
1.088097360546616e+00
1.111277369006982e+00
1.105597683602494e+00
1.115405807230750e+00
1.090439343255122e+00
1.089207186417484e+00
1.089458294729939e+00
1.087116964219422e+00
1.109295264297327e+00
1.085677497007126e+00
1.088097360546616e+00
1.105597683602494e+00
1.103604514148443e+00
1.115405807230750e+00
1.089207186417484e+00
1.092858905162207e+00
1.089458294729939e+00
1.085677497007126e+00
1.110064407385377e+00
1.089915657293763e+00
1.088097360546616e+00
1.103604514148443e+00
1.109435854793927e+00
1.115405807230750e+00
1.092858905162207e+00
1.094053131157168e+00
1.089458294729939e+00
1.089915657293763e+00
1.111939922787946e+00
1.091264832214131e+00
1.088097360546616e+00
1.109435854793927e+00
1.111277369006982e+00
0.000000000000000e+00
1.090439343255122e+00
1.094053131157168e+00
1.089458294729939e+00
0.000000000000000e+00
1.110941856837143e+00
0.000000000000000e+00
0.000000000000000e+00
1.105597683602494e+00
1.111277369006982e+00
0.000000000000000e+00
1.089207186417484e+00
1.090439343255122e+00
1.089458294729939e+00
0.000000000000000e+00
1.109295264297327e+00
0.000000000000000e+00
0.000000000000000e+00
1.103604514148443e+00
1.105597683602494e+00
0.000000000000000e+00
1.092858905162207e+00
1.089207186417484e+00
1.089458294729939e+00
0.000000000000000e+00
1.110064407385377e+00
0.000000000000000e+00
0.000000000000000e+00
1.109435854793927e+00
1.103604514148443e+00
0.000000000000000e+00
1.094053131157168e+00
1.092858905162207e+00
1.089458294729939e+00
0.000000000000000e+00
1.111939922787946e+00
0.000000000000000e+00
0.000000000000000e+00
1.111277369006982e+00
1.109435854793927e+00
        </DataArray>
        <DataArray type="Float64" Name="displacement" NumberOfComponents="3" format="ascii">
9.366397045474083e-01 -6.477848050239220e-03 -6.559582059469777e-03
9.652932901984509e-01 -9.871862376794152e-03 -1.030875662909535e-02
9.746459023811774e-01 9.159007020087685e-03 -1.054574466564408e-02
9.455919875140968e-01 6.514054193645325e-03 -6.796960604556431e-03
9.544761342152623e-01 -6.916698459937799e-03 6.595788202875845e-03
9.839250907102742e-01 -1.027935212340668e-02 8.815601856293763e-03
9.931309310991275e-01 9.431647489841327e-03 8.917793868217538e-03
9.632921737232337e-01 6.880492316531676e-03 6.760754461150357e-03
9.652932901984509e-01 -9.871862376794152e-03 -1.030875662909535e-02
9.941571791432724e-01 1.125980859249884e-02 1.062054952171856e-02
1.004170930541706e+00 -1.294266584301876e-02 1.082116339442395e-02
9.746459023811774e-01 9.159007020087685e-03 -1.054574466564408e-02
9.839250907102742e-01 -1.027935212340668e-02 8.815601856293763e-03
1.014090517015808e+00 1.183655827114625e-02 -1.415678891173092e-02
1.023915835423524e+00 -1.386046117103818e-02 -1.469831484977549e-02
9.931309310991275e-01 9.431647489841327e-03 8.917793868217538e-03
9.941571791432724e-01 1.125980859249884e-02 1.062054952171856e-02
1.115513693576842e+00 2.309888081364978e-03 -9.472176508943235e-03
1.131840866578020e+00 -2.635840625695094e-02 -9.179278163908020e-03
1.004170930541706e+00 -1.294266584301876e-02 1.082116339442395e-02
1.014090517015808e+00 1.183655827114625e-02 -1.415678891173092e-02
1.147903328682642e+00 2.972163166985431e-03 -3.869663765578792e-02
1.163713522556417e+00 -2.717131710147773e-02 -3.913971864192949e-02
1.023915835423524e+00 -1.386046117103818e-02 -1.469831484977549e-02
1.452950155036820e+00 -8.956749231035111e-03 -2.797805372691091e-03
1.403636930379319e+00 -2.650819982474084e-03 -6.461332548243965e-03
1.391142112673559e+00 6.482400912166283e-04 1.295937700688259e-03
1.407082099542373e+00 1.169614129523751e-02 8.311371128146985e-04
1.395764654882564e+00 -6.713487110366648e-03 -1.981344027796296e-03
1.379046096489673e+00 6.058573097306656e-04 7.727301614504331e-04
1.402665155860155e+00 -3.495256756914732e-04 2.803386636834595e-04
1.425175250640507e+00 -3.927522938682471e-03 -4.795571176347015e-03
1.400064219099243e+00 -7.308299853191360e-04 -1.254663863525945e-03
1.394216447931565e+00 2.055333081054423e-03 1.257668600681374e-03
1.403636930379319e+00 -2.650819982474084e-03 -6.461332548243965e-03
1.428684025602724e+00 -1.844032953350444e-03 -9.759960517414450e-03
1.391142112673559e+00 6.482400912166283e-04 1.295937700688259e-03
1.395978243128347e+00 5.620422372081533e-04 1.214614991603303e-02
1.384543430094143e+00 -9.152175913724905e-04 -6.235722531011718e-03
1.390946578974015e+00 2.260629176725070e-05 1.909457120841478e-04
1.379046096489673e+00 6.058573097306656e-04 7.727301614504331e-04
1.394786414528553e+00 9.030934828628951e-04 -2.026689352230486e-03
1.407534286658552e+00 -3.733934104874484e-03 -3.737903961801280e-03
1.388442508143638e+00 6.928889927843548e-04 2.853621267341158e-03
1.428684025602724e+00 -1.844032953350444e-03 -9.759960517414450e-03
1.476490465696213e+00 3.910022076511032e-03 -5.072894454283597e-05
1.391142112673559e+00 6.482400912166283e-04 1.295937700688259e-03
1.428714475415253e+00 -1.160315576930191e-02 2.669480236890519e-04
1.417639210856173e+00 7.148343323450324e-03 -2.286742149348433e-03
1.414217700532922e+00 5.716382999944707e-04 4.555161060482530e-04
1.390946578974015e+00 2.260629176725070e-05 1.909457120841478e-04
1.422934084622650e+00 -6.937755736930521e-04 -2.885954152016898e-03
1.447310992847416e+00 2.066218039989707e-03 -3.930757672983384e-03
1.405614805284723e+00 -8.501463485048261e-04 1.005434941601636e-03
1.476490465696213e+00 3.910022076511032e-03 -5.072894454283597e-05
1.452950155036820e+00 -8.956749231035111e-03 -2.797805372691091e-03
1.391142112673559e+00 6.482400912166283e-04 1.295937700688259e-03
1.439258329772000e+00 -2.794988907812790e-06 -1.194076279668203e-02
1.428301640453578e+00 -1.220791073312009e-03 7.104747421625903e-03
1.402665155860155e+00 -3.495256756914732e-04 2.803386636834595e-04
1.414217700532922e+00 5.716382999944707e-04 4.555161060482530e-04
1.452173860463497e+00 -1.627354193747254e-03 2.398030614692552e-04
1.440160292565744e+00 -1.970709780155070e-03 -1.034583943643840e-03
1.411239429065503e+00 4.407326356408835e-04 -4.417277945220068e-04
1.452950155036820e+00 -8.956749231035111e-03 -2.797805372691091e-03
1.496700801323922e+00 5.207922477791628e-03 -3.155240013605774e-02
1.407082099542373e+00 1.169614129523751e-02 8.311371128146985e-04
1.439258329772000e+00 -2.794988907812790e-06 -1.194076279668203e-02
1.474445448621229e+00 -9.102106841895514e-03 -7.051463325291464e-03
1.450534505090420e+00 9.879571857029175e-03 -1.553683631949863e-02
1.425175250640507e+00 -3.927522938682471e-03 -4.795571176347015e-03
1.440160292565744e+00 -1.970709780155070e-03 -1.034583943643840e-03
1.466398984866118e+00 3.113485037223665e-03 -2.292368082322861e-02
1.420617020998736e+00 6.609756769701092e-03 -6.106153148226529e-03
1.403636930379319e+00 -2.650819982474084e-03 -6.461332548243965e-03
1.441274958801856e+00 4.001832662619887e-03 -4.486084741212823e-03
1.395978243128347e+00 5.620422372081533e-04 1.214614991603303e-02
1.407082099542373e+00 1.169614129523751e-02 8.311371128146985e-04
1.422167245947877e+00 -2.527249643317588e-03 -7.739087960709559e-03
1.419459823657402e+00 3.469829368076562e-03 5.880996360318295e-03
1.394786414528553e+00 9.030934828628951e-04 -2.026689352230486e-03
1.400064219099243e+00 -7.308299853191360e-04 -1.254663863525945e-03
1.425039899858270e+00 9.784843195119384e-03 -3.979825672584705e-04
1.396935513564735e+00 6.810404547657895e-03 7.263895724352792e-03
1.428684025602724e+00 -1.844032953350444e-03 -9.759960517414450e-03
1.469533055221983e+00 -2.196990656181187e-02 -3.949810076547633e-03
1.428714475415253e+00 -1.160315576930191e-02 2.669480236890519e-04
1.395978243128347e+00 5.620422372081533e-04 1.214614991603303e-02
1.448742613823487e+00 -4.634624001827305e-03 -1.126393639303368e-02
1.448715149144542e+00 -1.822316552966087e-02 -8.052595048759619e-04
1.422934084622650e+00 -6.937755736930521e-04 -2.885954152016898e-03
1.407534286658552e+00 -3.733934104874484e-03 -3.737903961801280e-03
1.432424705341310e+00 -1.120893572021016e-02 5.825997036558514e-03
1.408870293296503e+00 -6.091130858515503e-03 7.017641254041554e-03
1.476490465696213e+00 3.910022076511032e-03 -5.072894454283597e-05
1.522886669880854e+00 -2.339227685343111e-02 -3.230506307699159e-02
1.439258329772000e+00 -2.794988907812790e-06 -1.194076279668203e-02
1.428714475415253e+00 -1.160315576930191e-02 2.669480236890519e-04
1.499338350362189e+00 1.035336998436492e-03 -4.429453649678301e-03
1.478542766150686e+00 -1.172947041362875e-02 -2.323691975396424e-02
1.452173860463497e+00 -1.627354193747254e-03 2.398030614692552e-04
1.447310992847416e+00 2.066218039989707e-03 -3.930757672983384e-03
1.473389350836140e+00 -1.868561321092307e-02 -1.600509604639183e-02
1.432189784012910e+00 -6.452845826014005e-03 -6.422264293240189e-03
1.496700801323922e+00 5.207922477791628e-03 -3.155240013605774e-02
1.441274958801856e+00 4.001832662619887e-03 -4.486084741212823e-03
1.407082099542373e+00 1.169614129523751e-02 8.311371128146985e-04
1.487991428003048e+00 -9.533286900590127e-03 -1.906378709153153e-02
1.474936505368908e+00 5.678312414930649e-03 -1.870707577493246e-02
1.425039899858270e+00 9.784843195119384e-03 -3.979825672584705e-04
1.450534505090420e+00 9.879571857029175e-03 -1.553683631949863e-02
1.494308659409330e+00 -2.206166568067503e-03 -2.553562810622294e-02
1.465922374652997e+00 -2.586385997147108e-03 -1.174731098614159e-02
1.444283293298802e+00 3.090522632993679e-03 -8.406212813073119e-03
1.441274958801856e+00 4.001832662619887e-03 -4.486084741212823e-03
1.469533055221983e+00 -2.196990656181187e-02 -3.949810076547633e-03
1.395978243128347e+00 5.620422372081533e-04 1.214614991603303e-02
1.487991428003048e+00 -9.533286900590127e-03 -1.906378709153153e-02
1.462129086505734e+00 -9.305724124639019e-03 -3.435374928714227e-03
1.432424705341310e+00 -1.120893572021016e-02 5.825997036558514e-03
1.419459823657402e+00 3.469829368076562e-03 5.880996360318295e-03
1.465922374652997e+00 -2.586385997147108e-03 -1.174731098614159e-02
1.480278027719167e+00 -1.604081868841779e-02 -1.157513153802846e-02
1.438035133636589e+00 -4.148274481523010e-03 -1.034852674509899e-03
1.469533055221983e+00 -2.196990656181187e-02 -3.949810076547633e-03
1.522886669880854e+00 -2.339227685343111e-02 -3.230506307699159e-02
1.428714475415253e+00 -1.160315576930191e-02 2.669480236890519e-04
1.487991428003048e+00 -9.533286900590127e-03 -1.906378709153153e-02
1.499997462413039e+00 -2.408699558245166e-02 -1.888102036294718e-02
1.473389350836140e+00 -1.868561321092307e-02 -1.600509604639183e-02
1.448715149144542e+00 -1.822316552966087e-02 -8.052595048759619e-04
1.480278027719167e+00 -1.604081868841779e-02 -1.157513153802846e-02
1.508046456325979e+00 -1.648631472987017e-02 -2.577249827231085e-02
1.456626405024328e+00 -1.165828643461800e-02 -8.619367596529405e-03
1.522886669880854e+00 -2.339227685343111e-02 -3.230506307699159e-02
1.496700801323922e+00 5.207922477791628e-03 -3.155240013605774e-02
1.439258329772000e+00 -2.794988907812790e-06 -1.194076279668203e-02
1.487991428003048e+00 -9.533286900590127e-03 -1.906378709153153e-02
1.512257146399814e+00 -9.480583974650224e-03 -3.336860590367773e-02
1.466398984866118e+00 3.113485037223665e-03 -2.292368082322861e-02
1.478542766150686e+00 -1.172947041362875e-02 -2.323691975396424e-02
1.508046456325979e+00 -1.648631472987017e-02 -2.577249827231085e-02
1.494308659409330e+00 -2.206166568067503e-03 -2.553562810622294e-02
1.462722684448239e+00 -4.361740101707087e-03 -1.609529029664670e-02
1.391142112673559e+00 6.482400912166283e-04 1.295937700688259e-03
1.407082099542373e+00 1.169614129523751e-02 8.311371128146985e-04
1.439258329772000e+00 -2.794988907812790e-06 -1.194076279668203e-02
1.452950155036820e+00 -8.956749231035111e-03 -2.797805372691091e-03
1.394216447931565e+00 2.055333081054423e-03 1.257668600681374e-03
1.420617020998736e+00 6.609756769701092e-03 -6.106153148226529e-03
1.411239429065503e+00 4.407326356408835e-04 -4.417277945220068e-04
1.402665155860155e+00 -3.495256756914732e-04 2.803386636834595e-04
1.425175250640507e+00 -3.927522938682471e-03 -4.795571176347015e-03
1.440160292565744e+00 -1.970709780155070e-03 -1.034583943643840e-03
1.391142112673559e+00 6.482400912166283e-04 1.295937700688259e-03
1.395978243128347e+00 5.620422372081533e-04 1.214614991603303e-02
1.407082099542373e+00 1.169614129523751e-02 8.311371128146985e-04
1.403636930379319e+00 -2.650819982474084e-03 -6.461332548243965e-03
1.388442508143638e+00 6.928889927843548e-04 2.853621267341158e-03
1.396935513564735e+00 6.810404547657895e-03 7.263895724352792e-03
1.394216447931565e+00 2.055333081054423e-03 1.257668600681374e-03
1.379046096489673e+00 6.058573097306656e-04 7.727301614504331e-04
1.394786414528553e+00 9.030934828628951e-04 -2.026689352230486e-03
1.400064219099243e+00 -7.308299853191360e-04 -1.254663863525945e-03
1.391142112673559e+00 6.482400912166283e-04 1.295937700688259e-03
1.428714475415253e+00 -1.160315576930191e-02 2.669480236890519e-04
1.395978243128347e+00 5.620422372081533e-04 1.214614991603303e-02
1.428684025602724e+00 -1.844032953350444e-03 -9.759960517414450e-03
1.405614805284723e+00 -8.501463485048261e-04 1.005434941601636e-03
1.408870293296503e+00 -6.091130858515503e-03 7.017641254041554e-03
1.388442508143638e+00 6.928889927843548e-04 2.853621267341158e-03
1.390946578974015e+00 2.260629176725070e-05 1.909457120841478e-04
1.422934084622650e+00 -6.937755736930521e-04 -2.885954152016898e-03
1.407534286658552e+00 -3.733934104874484e-03 -3.737903961801280e-03
1.391142112673559e+00 6.482400912166283e-04 1.295937700688259e-03
1.439258329772000e+00 -2.794988907812790e-06 -1.194076279668203e-02
1.428714475415253e+00 -1.160315576930191e-02 2.669480236890519e-04
1.476490465696213e+00 3.910022076511032e-03 -5.072894454283597e-05
1.411239429065503e+00 4.407326356408835e-04 -4.417277945220068e-04
1.432189784012910e+00 -6.452845826014005e-03 -6.422264293240189e-03
1.405614805284723e+00 -8.501463485048261e-04 1.005434941601636e-03
1.414217700532922e+00 5.716382999944707e-04 4.555161060482530e-04
1.452173860463497e+00 -1.627354193747254e-03 2.398030614692552e-04
1.447310992847416e+00 2.066218039989707e-03 -3.930757672983384e-03
1.487991428003048e+00 -9.533286900590127e-03 -1.906378709153153e-02
1.439258329772000e+00 -2.794988907812790e-06 -1.194076279668203e-02
1.407082099542373e+00 1.169614129523751e-02 8.311371128146985e-04
1.496700801323922e+00 5.207922477791628e-03 -3.155240013605774e-02
1.462722684448239e+00 -4.361740101707087e-03 -1.609529029664670e-02
1.420617020998736e+00 6.609756769701092e-03 -6.106153148226529e-03
1.444283293298802e+00 3.090522632993679e-03 -8.406212813073119e-03
1.494308659409330e+00 -2.206166568067503e-03 -2.553562810622294e-02
1.466398984866118e+00 3.113485037223665e-03 -2.292368082322861e-02
1.450534505090420e+00 9.879571857029175e-03 -1.553683631949863e-02