<?xml version="1.0" ?> 
<!-- 
# vtk DataFile Version 3.0
-->
<VTKFile type="UnstructuredGrid" version="0.1" compressor="vtkZLibDataCompressor" byte_order="LittleEndian">
  <UnstructuredGrid>
    <FieldData>
      <DataArray type="Float64" Name="TIME" NumberOfTuples="1" format="ascii">
3.000000000000000e+00 
      </DataArray>
    </FieldData>

    <Piece NumberOfPoints="432" NumberOfCells="0" >
      <Points>
        <DataArray type="Float64" NumberOfComponents="3" format="ascii">
9.961508145972252e-01 8.592086226024845e-02 1.528071566903062e-02
9.887897073711956e-01 1.468037178864243e-01 7.666788650934654e-02
9.698962622537908e-01 2.404644815942518e-01 1.723189298689200e-01
9.380536336930722e-01 3.436060835709402e-01 2.803550731636581e-01
9.009239073701820e-01 4.317150572693559e-01 3.760244732140129e-01
8.728306729741147e-01 4.862862962232773e-01 4.374325130705180e-01
8.645372169543546e-01 5.009833640985419e-01 4.543160180413865e-01
8.613235470217895e-01 5.065291381708883e-01 4.607288499074974e-01
8.562476935757146e-01 5.151277191794387e-01 4.707191468495250e-01
8.504143017171248e-01 5.247770947824838e-01 4.820011842343861e-01
8.451597461372596e-01 5.332663647181585e-01 4.919911575819921e-01
8.417429166174110e-01 5.386878672332490e-01 4.984036215660428e-01
8.369740717620143e-01 5.461294004394486e-01 5.072479512151478e-01
8.208190763326847e-01 5.703223022532734e-01 5.363609104801736e-01
7.942732942844649e-01 6.070417183346181e-01 5.817116896770539e-01
7.623155153791229e-01 6.469935789125921e-01 6.329207197335958e-01
7.323040534311026e-01 6.809330643160265e-01 6.782591714366593e-01
7.122090597310894e-01 7.019655697919733e-01 7.073581160477863e-01
7.008280738556409e-01 7.133275282405195e-01 7.234410182242363e-01
6.750424117560742e-01 7.377186261707828e-01 7.589496380164499e-01
6.331455164199606e-01 7.737812736017835e-01 8.142762118776878e-01
5.834756456364070e-01 8.116008737485321e-01 8.767680166441256e-01
5.375809239492999e-01 8.424444628623822e-01 9.321114259419293e-01
5.072502867323505e-01 8.609022139923966e-01 9.676391852948852e-01
4.989108780625087e-01 8.657262322388349e-01 9.772781523082409e-01
4.961413847090663e-01 8.673050550132074e-01 9.804675735317165e-01
4.918169520841263e-01 8.697474089375292e-01 9.854363280879123e-01
4.869189222602973e-01 8.724802717602733e-01 9.910476635530109e-01
4.825691589487003e-01 8.748777159706708e-01 9.960164798060829e-01
4.797708681112122e-01 8.764054826174402e-01 9.992059711703659e-01
4.641739722219643e-01 8.847150706998458e-01 1.016885236121368e+00
4.030608978006651e-01 9.140673022005500e-01 1.084712850232482e+00
3.043552951980907e-01 9.515847064974028e-01 1.190380902982318e+00
1.889632452847260e-01 9.814319600937836e-01 1.309702054430989e+00
8.451378512843108e-02 9.962755514098970e-01 1.415336657292568e+00
1.687073982608985e-02 9.998507964269235e-01 1.483126243511407e+00
1.135060971593723e-01 2.999999999999999e-01 2.507074622321568e+00
1.677581227067583e-01 2.999999999999999e-01 2.535492349989220e+00
2.522761627833781e-01 3.000000000000000e-01 2.579763704315047e+00
3.477238372166552e-01 2.999999999999999e-01 2.629760105208663e+00
4.322418772932615e-01 3.000000000000000e-01 2.674031459534515e+00
4.864939028406323e-01 3.000000000000000e-01 2.702449187202197e+00
5.168826214492115e-01 3.000000000000000e-01 2.718367087425746e+00
5.846976533834305e-01 3.000000000000000e-01 2.753889247010356e+00
6.903452034791921e-01 2.999999999999999e-01 2.809228439917691e+00
8.096547965207874e-01 2.999999999999999e-01 2.871723941034747e+00
9.153023466165575e-01 3.000000000000000e-01 2.927063133942068e+00
9.831173785507854e-01 3.000000000000000e-01 2.962585293526660e+00
1.057768500458407e+00 3.000000000000000e-01 3.001688262144921e+00
1.070715006554950e+00 2.999999999999999e-01 3.008469765338345e+00
1.090884084300523e+00 3.000000000000000e-01 3.019034520347923e+00
1.113661370244847e+00 3.000000000000000e-01 3.030965479652083e+00
1.133830447990420e+00 3.000000000000000e-01 3.041530234661658e+00
1.146776954086965e+00 2.999999999999999e-01 3.048311737855079e+00
1.001841740521729e+00 3.000000000000000e-01 2.972393292654295e+00
1.009239744005451e+00 3.000000000000000e-01 2.976268437336243e+00
1.020764931288608e+00 3.000000000000000e-01 2.982305440198846e+00
1.033780523256763e+00 2.999999999999999e-01 2.989123131229781e+00
1.045305710539920e+00 3.000000000000000e-01 2.995160134092385e+00
1.052703714023642e+00 3.000000000000000e-01 2.999035278774333e+00
1.161817835014451e+00 3.000000000000000e-01 3.056190294531372e+00
1.209288357368413e+00 3.000000000000000e-01 3.081055806240567e+00
1.283241642435455e+00 3.000000000000000e-01 3.119793241275662e+00
1.366758357564573e+00 3.000000000000000e-01 3.163540092057572e+00
1.440711642631604e+00 3.000000000000000e-01 3.202277527092688e+00
1.488182164985553e+00 3.000000000000000e-01 3.227143038801907e+00
1.516882621449212e+00 3.000000000000000e-01 3.242176611235258e+00
1.584697653383433e+00 3.000000000000000e-01 3.277698770819866e+00
1.690345203479196e+00 3.000000000000000e-01 3.333037963727203e+00
1.809654796520792e+00 3.000000000000000e-01 3.395533464844262e+00
1.915302346616560e+00 3.000000000000000e-01 3.450872657751589e+00
1.983117378550786e+00 3.000000000000000e-01 3.486394817336187e+00
9.961508145975779e-01 8.592086225564063e-02 5.015280715669051e+00
9.887897073716787e-01 1.468037178823039e-01 5.076667886509384e+00
9.698962622543036e-01 2.404644815910580e-01 5.172318929868813e+00
9.380536336934090e-01 3.436060835689309e-01 5.280355073163236e+00
9.009239073702221e-01 4.317150572684103e-01 5.376024473213271e+00
8.728306729739144e-01 4.862862962229748e-01 5.437432513069590e+00
8.645372169540647e-01 5.009833640984385e-01 5.454316018040451e+00
8.613235470213982e-01 5.065291381709724e-01 5.460728849906690e+00
8.562476935751622e-01 5.151277191798120e-01 5.470719146848922e+00
8.504143017163849e-01 5.247770947831786e-01 5.482001184234013e+00
8.451597461363493e-01 5.332663647191331e-01 5.491991157581827e+00
8.417429166163889e-01 5.386878672344007e-01 5.498403621566010e+00
8.369740717609830e-01 5.461294004406132e-01 5.507247951215027e+00
8.208190763317383e-01 5.703223022543119e-01 5.536360910479583e+00
7.942732942836876e-01 6.070417183354412e-01 5.581711689675767e+00
7.623155153785933e-01 6.469935789131366e-01 5.632920719731584e+00
7.323040534308457e-01 6.809330643162858e-01 5.678259171434071e+00
7.122090597310354e-01 7.019655697920274e-01 5.707358116044865e+00
7.008280738556323e-01 7.133275282405286e-01 5.723441018221251e+00
6.750424117560395e-01 7.377186261708233e-01 5.758949638013529e+00
6.331455164199137e-01 7.737812736018588e-01 5.814276211874900e+00
5.834756456363795e-01 8.116008737486285e-01 5.876768016641527e+00
5.375809239493141e-01 8.424444628624845e-01 5.932111425939527e+00
5.072502867324002e-01 8.609022139924971e-01 5.967639185292620e+00
4.989108780625064e-01 8.657262322389699e-01 5.977278152306085e+00
4.961413847088160e-01 8.673050550134851e-01 5.980467573529864e+00
4.918169520834873e-01 8.697474089380252e-01 5.985436328086531e+00
4.869189222592172e-01 8.724802717610116e-01 5.991047663552161e+00
4.825691589472274e-01 8.748777159716193e-01 5.996016479805704e+00
4.797708681094859e-01 8.764054826185215e-01 5.999205971170290e+00
4.641739722202320e-01 8.847150707008976e-01 6.016885236121376e+00
4.030608977991809e-01 9.140673022013622e-01 6.084712850232536e+00
3.043552951970307e-01 9.515847064978846e-01 6.190380902982448e+00
1.889632452841438e-01 9.814319600939788e-01 6.309702054431162e+00
8.451378512821399e-02 9.962755514099378e-01 6.415336657292694e+00
1.687073982605329e-02 9.998507964269251e-01 6.483126243511438e+00
1.135060971593723e-01 2.999999999999999e-01 7.507074622321567e+00
1.677581227067584e-01 2.999999999999999e-01 7.535492349989219e+00
2.522761627833782e-01 3.000000000000000e-01 7.579763704315047e+00
3.477238372166552e-01 3.000000000000000e-01 7.629760105208663e+00
4.322418772932615e-01 3.000000000000000e-01 7.674031459534515e+00
4.864939028406323e-01 3.000000000000000e-01 7.702449187202197e+00
5.168826214492115e-01 3.000000000000000e-01 7.718367087425746e+00
5.846976533834306e-01 3.000000000000000e-01 7.753889247010356e+00
6.903452034791924e-01 3.000000000000000e-01 7.809228439917693e+00
8.096547965207879e-01 3.000000000000000e-01 7.871723941034748e+00
9.153023466165575e-01 3.000000000000000e-01 7.927063133942069e+00
9.831173785507861e-01 3.000000000000000e-01 7.962585293526661e+00
1.057768500458404e+00 3.000000000000000e-01 8.001688262144921e+00
1.070715006554948e+00 3.000000000000000e-01 8.008469765338344e+00
1.090884084300521e+00 3.000000000000000e-01 8.019034520347923e+00
1.113661370244846e+00 3.000000000000000e-01 8.030965479652084e+00
1.133830447990420e+00 3.000000000000000e-01 8.041530234661657e+00
1.146776954086965e+00 3.000000000000000e-01 8.048311737855082e+00
1.001841740521729e+00 2.999999999999999e-01 7.972393292654295e+00
1.009239744005451e+00 3.000000000000000e-01 7.976268437336243e+00
1.020764931288607e+00 3.000000000000000e-01 7.982305440198846e+00
1.033780523256761e+00 3.000000000000000e-01 7.989123131229781e+00
1.045305710539918e+00 2.999999999999999e-01 7.995160134092385e+00
1.052703714023640e+00 3.000000000000000e-01 7.999035278774334e+00
1.161817835014451e+00 3.000000000000000e-01 8.056190294531373e+00
1.209288357368413e+00 3.000000000000000e-01 8.081055806240567e+00
1.283241642435455e+00 3.000000000000000e-01 8.119793241275664e+00
1.366758357564573e+00 3.000000000000000e-01 8.163540092057572e+00
1.440711642631603e+00 3.000000000000000e-01 8.202277527092688e+00
1.488182164985553e+00 3.000000000000000e-01 8.227143038801907e+00
1.516882621449212e+00 3.000000000000000e-01 8.242176611235257e+00
1.584697653383433e+00 3.000000000000000e-01 8.277698770819866e+00
1.690345203479196e+00 2.999999999999999e-01 8.333037963727202e+00
1.809654796520792e+00 3.000000000000000e-01 8.395533464844263e+00
1.915302346616560e+00 3.000000000000000e-01 8.450872657751589e+00
1.983117378550787e+00 3.000000000000000e-01 8.486394817336187e+00
[...]
  <PointData>
        <DataArray type="Float64" Name="displacement" NumberOfComponents="3" format="ascii">
2.593236197497254e-01 2.527984092249613e-01 2.594692186142994e-02
2.166586096147313e-01 2.387878139638282e-01 1.781847685306699e-02
1.599821939775343e-01 2.153059327155716e-01 8.553376211131031e-03
1.087326487199475e-01 1.871709454164505e-01 2.077941714556386e-03
7.306448067928717e-02 1.616336993817751e-01 -1.113590566782008e-03
5.428293976059495e-02 1.452864388952760e-01 -2.337229150579323e-03
4.962035239963147e-02 1.408297559501828e-01 -2.599578708626094e-03
4.790258277636039e-02 1.391430036511092e-01 -2.692998700331239e-03
4.528342674453034e-02 1.365226372254801e-01 -2.832627225751616e-03
4.240712870599073e-02 1.335751523697685e-01 -2.982785155196510e-03
3.993061104465856e-02 1.309764968888836e-01 -3.110209814193743e-03
3.837500150233619e-02 1.293144269284051e-01 -3.189755699232133e-03
3.627219114954927e-02 1.270301764205017e-01 -3.297163782129853e-03
2.968714617618440e-02 1.195845534921979e-01 -3.640157858215032e-03
2.038221831715603e-02 1.082495054955278e-01 -4.189891681294244e-03
1.110213368525514e-02 9.592184781892932e-02 -4.938675469801757e-03
3.803485372858462e-03 8.551091806198452e-02 -5.820434016356457e-03
-5.006974976067280e-04 7.911588964087513e-02 -6.540894238808104e-03
-2.758475775426539e-03 7.567965996385895e-02 -6.987761732845987e-03
-7.246101207842193e-03 6.822156924514988e-02 -7.834973175041116e-03
-1.290025095630720e-02 5.698432554642552e-02 -8.744234246493732e-03
-1.747667894327365e-02 4.497779008971803e-02 -9.231220656236383e-03
-2.007654955257188e-02 3.507673651243581e-02 -9.245879667533763e-03
-2.109188242640647e-02 2.913770898478696e-02 -9.076052412599123e-03
-2.128500177857018e-02 2.758745319840006e-02 -9.008191344299643e-03
-2.134142554611396e-02 2.708044727684666e-02 -8.983797275611383e-03
-2.142201495148283e-02 2.629656975052408e-02 -8.943911721993159e-03
-2.150242507974653e-02 2.542016594880747e-02 -8.896155603551170e-03
-2.156434850382849e-02 2.465203888847989e-02 -8.851510419413233e-03
-2.159955163469579e-02 2.416293906632827e-02 -8.821705309729033e-03
-2.173149122090595e-02 2.150910224794489e-02 -8.640748057426428e-03
-2.131235586468577e-02 1.228387552481014e-02 -7.726924892050402e-03
-1.819738433504980e-02 1.321995479217075e-03 -5.799834763807743e-03
-1.211213014460888e-02 -5.193404169378524e-03 -3.313862559593206e-03
-5.488460847738880e-03 -4.900243260266501e-03 -1.265988617398683e-03
-1.080421860791506e-03 -1.330046522463268e-03 -2.148509764066109e-04
-2.183340519228416e-04 8.974237087072678e-05 -1.288246748019084e-04
-1.290904773797980e-03 1.427219250561940e-03 -4.211925764936453e-04
-3.590846920499047e-03 6.566501877137032e-03 -2.221500765395845e-04
-7.120874641110164e-03 1.670703914137484e-02 8.177498178123521e-04
-1.108398397458205e-02 2.938790983573752e-02 2.316896788731260e-03
-1.404734554535003e-02 3.929912832007021e-02 3.502567689066094e-03
-1.585178277725474e-02 4.544100232841808e-02 4.227508040015593e-03
-2.025566703598192e-02 6.064030238315182e-02 5.966488503788447e-03
-2.816476927464073e-02 8.829917837737544e-02 8.875944874427777e-03
-3.865443061452911e-02 1.250934974919241e-01 1.217484354711384e-02
-4.934466433988038e-02 1.623260759479473e-01 1.482749228764346e-02
-5.691031008983527e-02 1.884093503552164e-01 1.627451802744284e-02
-6.588223488339962e-02 2.190053742301053e-01 1.754213066947541e-02
-6.750734073783216e-02 2.245063127362207e-01 1.772099762585322e-02
-7.007997786150888e-02 2.331883322089542e-01 1.797295417925548e-02
-7.304538731966237e-02 2.431555686992042e-01 1.821644472127337e-02
-7.572459136473730e-02 2.521234592907718e-01 1.839375595121773e-02
-7.747084905608426e-02 2.579493936841037e-01 1.848776150843445e-02
-5.909706077458610e-02 1.959012666478309e-01 1.662772695563941e-02
-5.997276310356425e-02 1.988952967701011e-01 1.676110733913205e-02
-6.135024602896177e-02 2.035976850370598e-01 1.696163890490832e-02
-6.292528908967765e-02 2.089635548909691e-01 1.717710783580051e-02
-6.433720752706651e-02 2.137636723577686e-01 1.735780403830534e-02
-6.525205826605962e-02 2.168688070510033e-01 1.746863435969104e-02
-7.951654951351972e-02 2.647761433152644e-01 1.857765814572643e-02
-8.597251711596887e-02 2.866093699369411e-01 1.873392632945814e-02
-9.607426200451674e-02 3.215283163480133e-01 1.858324312634574e-02
-1.076615200629225e-01 3.623826386108656e-01 1.781602343828226e-02
-1.181951327202595e-01 3.999096135007553e-01 1.658815641820599e-02
-1.251420741897096e-01 4.247078074574206e-01 1.551981572323102e-02
-1.294264383213843e-01 4.399812460352986e-01 1.476522628579069e-02
-1.398421410069060e-01 4.769429298116408e-01 1.264994077652037e-02
-1.570445914477712e-01 5.370971134099987e-01 8.396934643471354e-03
-1.782350683327856e-01 6.090708082382661e-01 2.133614108573934e-03
-1.988944882214942e-01 6.766537968131598e-01 -4.763384610239729e-03
-2.132402865996650e-01 7.220610034326476e-01 -9.884523665367961e-03
3.324241593370283e-01 3.451037230005699e-01 3.524657336781356e-02
2.825496027301018e-01 3.237818704107819e-01 2.633792403335988e-02
2.153060673843038e-01 2.910460370913925e-01 1.524392269044483e-02
1.532535849101081e-01 2.548213416210946e-01 6.255679555298599e-03
1.091782432695939e-01 2.234438671740027e-01 8.938938984517364e-04
8.564271558998660e-02 2.036662805760409e-01 -1.498019746822621e-03
7.976728807210309e-02 1.982798285077962e-01 -2.033001620874053e-03
7.759983743189369e-02 1.962397681367266e-01 -2.223506825120403e-03
7.429234319414668e-02 1.930681082787344e-01 -2.506863624645028e-03
7.065675478864131e-02 1.894958714927885e-01 -2.807811044222674e-03
6.752406543724176e-02 1.863412110663097e-01 -3.058039155089176e-03
6.555534375349326e-02 1.843204766955353e-01 -3.210881626539930e-03
6.289320771578932e-02 1.815388217593208e-01 -3.412025530723284e-03
5.455397447936927e-02 1.724271539626586e-01 -3.999518486143216e-03
4.278978800033084e-02 1.583719353759748e-01 -4.712587974537996e-03
3.114985073034304e-02 1.427079216149625e-01 -5.279109493978140e-03
2.214799726489058e-02 1.290267196605166e-01 -5.626670479651708e-03
1.694915425816401e-02 1.203402569972853e-01 -5.798630867070109e-03
1.426083303136561e-02 1.155821652643744e-01 -5.878780469464218e-03
8.896485157900313e-03 1.053960794449992e-01 -5.955149846469610e-03
2.038684550134229e-03 9.044628113615405e-02 -5.813349292921544e-03
-3.706508794564800e-03 7.491452256921982e-02 -5.335103530668128e-03
-7.219566024816770e-03 6.236340116780159e-02 -4.693748911708262e-03
-8.781403711451419e-03 5.490427892856964e-02 -4.202194472681775e-03
-9.119259882808262e-03 5.296139701762526e-02 -4.060538070987718e-03
-9.223325540754612e-03 5.232612582330753e-02 -4.012997925527451e-03
-9.377918082552394e-03 5.134398405492557e-02 -3.938315023361838e-03
-9.541617222811050e-03 5.024587151047710e-02 -3.853110781335545e-03
-9.677074804567143e-03 4.928328011818606e-02 -3.776944693825612e-03
-9.759386661916503e-03 4.867023499500434e-02 -3.727718371962396e-03
-1.015152698015098e-02 4.534086462830267e-02 -3.450643848399437e-03
-1.073757561890698e-02 3.365011453751821e-02 -2.350417722650100e-03
-9.356169363057942e-03 1.887527452153293e-02 -7.165532192630053e-04
-5.800942296965733e-03 7.263409676166566e-03 5.672923037440825e-04
-2.251115605213197e-03 1.512386259822751e-03 7.632170193412335e-04
-3.719703961281504e-04 8.046642038284091e-05 2.287046692268646e-04
-3.308486702904706e-04 6.805582110208652e-05 -1.263431760527567e-04
-2.196764117278982e-03 2.105452400673780e-03 -2.143282694690996e-04
-6.759349820011001e-03 1.066019684545155e-02 8.750292968837670e-04
-1.420747373371145e-02 2.764409672469736e-02 3.648991539764168e-03
-2.270599508371784e-02 4.861000418066663e-02 7.219835399677521e-03
-2.904652448587125e-02 6.475717495031202e-02 9.952956694624149e-03
-3.288658895885066e-02 7.466030456516060e-02 1.160725206076130e-02
-4.217029868439270e-02 9.884197689567292e-02 1.555465892566676e-02
-5.847855771896215e-02 1.417254865396256e-01 2.217345956721584e-02
-7.934570498846871e-02 1.966980413440861e-01 2.984231467899789e-02
-9.974007828049125e-02 2.500810051924715e-01 3.631187899564914e-02
-1.136691342508229e-01 2.861991034493843e-01 4.008962481884648e-02
-1.296750153468631e-01 3.272664521597178e-01 4.374351417012434e-02
-1.325169294105148e-01 3.345037222025380e-01 4.431232154684750e-02
-1.369808786199206e-01 3.458363129306281e-01 4.515572974745652e-02
-1.420739286450530e-01 3.587114867772164e-01 4.604220157259320e-02
-1.466279192969721e-01 3.701730161259947e-01 4.676528819605785e-02
-1.495721980157707e-01 3.775568715307712e-01 4.719730659642174e-02
-1.176204851263094e-01 2.963835498777653e-01 4.106149007116588e-02
-1.191936530820812e-01 3.004301853904899e-01 4.143584311584014e-02
-1.216577211947281e-01 3.067588934993669e-01 4.200765498587966e-02
-1.244595339869887e-01 3.139405440255981e-01 4.263609837993965e-02
-1.269570968452176e-01 3.203289935256941e-01 4.317660813435520e-02
-1.285683436898325e-01 3.244435467298664e-01 4.351537500690927e-02
-1.530148428256219e-01 3.861764147652549e-01 4.766642551443034e-02
-1.640636189133251e-01 4.139072283424780e-01 4.891296431607728e-02
-1.818437013956997e-01 4.586857851277764e-01 5.014824342298496e-02
-2.027781759213365e-01 5.115015869055815e-01 5.051189395025979e-02
-2.220967333423010e-01 5.601953495351737e-01 4.992423800631762e-02
-2.348945424546300e-01 5.923772101513278e-01 4.909835201525858e-02
-2.427856353691702e-01 6.121774565686093e-01 4.842929618339120e-02
-2.618994271141195e-01 6.599680283791212e-01 4.634151416361298e-02
-2.930206065181225e-01 7.371477820951998e-01 4.167469203061103e-02
-3.302051759762232e-01 8.281182225960171e-01 3.434352162130949e-02
-3.650073606499957e-01 9.118603289757348e-01 2.603748495063307e-02
-3.883059458024687e-01 9.671113872979524e-01 1.981241980037396e-02
3.353353242664088e-01 3.505151752434828e-01 3.485526839213549e-02
2.852159023827959e-01 3.289061060625820e-01 2.589223901521365e-02
2.176396652119411e-01 2.957520772336221e-01 1.476413576946101e-02
1.552658763106457e-01 2.590919088477607e-01 5.793067536970398e-03
1.109372048813935e-01 2.273553754141925e-01 4.773585360577925e-04
8.724704694243435e-02 2.073578022652434e-01 -1.877783229973673e-03
8.132952743273225e-02 2.019120647721385e-01 -2.402395474998542e-03
7.914609982587606e-02 1.998496083134677e-01 -2.588972653789767e-03
7.581371158401584e-02 1.966431868343300e-01 -2.866239063491705e-03
7.214998496059766e-02 1.930318748387214e-01 -3.160371973995879e-03
6.899233797741400e-02 1.898427676742014e-01 -3.404643110190619e-03
6.700756699116561e-02 1.877999951943232e-01 -3.553709230752489e-03
6.432324763530683e-02 1.849880343969157e-01 -3.749716184303864e-03
5.591046140518285e-02 1.757772944918750e-01 -4.321040769816875e-03
4.402924995770308e-02 1.615695497293396e-01 -5.012078362403471e-03
3.225177030632820e-02 1.457353013589399e-01 -5.560307935578379e-03
2.312154402144939e-02 1.319044992997205e-01 -5.899472157880226e-03
1.783624708540155e-02 1.231222910658524e-01 -6.070765433369374e-03
1.509902017234044e-02 1.183110444745088e-01 -6.151995243063979e-03
9.631980815247521e-03 1.080021687966330e-01 -6.228073140194468e-03
2.629885511506003e-03 9.284718047973839e-02 -6.077951297289275e-03
-3.256400637837831e-03 7.706776704628926e-02 -5.580599316299839e-03
-6.876147571067581e-03 6.428766793144880e-02 -4.915542285058194e-03
-8.497925070182155e-03 5.667871250578571e-02 -4.406210158697021e-03
-8.850933823358775e-03 5.469496770346505e-02 -4.259455297878745e-03
-8.959910974543850e-03 5.404616327421041e-02 -4.210205440895010e-03
-9.122054406276170e-03 5.304292901907892e-02 -4.132837679728496e-03
-9.294134339012938e-03 5.192098586398874e-02 -4.044571442591405e-03
-9.436884064696338e-03 5.093728658492680e-02 -3.965668788477927e-03
-9.523813256894165e-03 5.031069071911642e-02 -3.914673970697891e-03
-9.940656346872412e-03 4.690622415695078e-02 -3.627643436406203e-03
-1.060798065867818e-02 3.492961219547741e-02 -2.487635801557531e-03
-9.313982096320395e-03 1.973023737131452e-02 -7.924064539324149e-04
-5.807773942658856e-03 7.700186540462561e-03 5.472329139344367e-04
-2.265084006434867e-03 1.663876467623226e-03 7.679904340687216e-04
-3.759575263357386e-04 1.044006289783184e-04 2.317277212711133e-04
-3.356063193967335e-04 6.920701031498666e-05 -1.271934003579389e-04
-2.240809934423993e-03 2.163173086662251e-03 -2.157568273037924e-04
-6.923978177280299e-03 1.095830012669752e-02 8.801879942836877e-04
-1.458397336428413e-02 2.840628708384157e-02 3.669035281012256e-03
-2.332586780416873e-02 4.992333624868500e-02 7.256132237223767e-03
-2.984528123077995e-02 6.648036660699241e-02 9.999663921821167e-03
-3.379207028549913e-02 7.662895120333535e-02 1.165940209829586e-02
-4.332799525648590e-02 1.013918203040790e-01 1.561706067390745e-02
-6.005737718170689e-02 1.452445926106216e-01 2.224334983060494e-02
-8.141940712725293e-02 2.013459219058153e-01 2.990136166832258e-02
-1.022470846763746e-01 2.556993545903726e-01 3.633735769130730e-02
-1.164422044194595e-01 2.924000208699009e-01 4.007867931734310e-02
-1.327226652264413e-01 3.340522428476635e-01 4.367671326153477e-02
-1.356097533549613e-01 3.413835988691867e-01 4.423399906025161e-02
-1.401424364880341e-01 3.528578939672731e-01 4.505831448703113e-02
-1.453105513473667e-01 3.658855516857470e-01 4.592150184096866e-02
-1.499285934384232e-01 3.774750101472559e-01 4.662239702053661e-02
-1.529127228854056e-01 3.849372909702174e-01 4.703937108400424e-02
-1.204644828343651e-01 3.027374075326546e-01 4.103816569879193e-02
-1.220653211097805e-01 3.068433891344696e-01 4.140733505193239e-02
-1.245720746372124e-01 3.132632696704421e-01 4.197073374793625e-02
-1.274214468189446e-01 3.205459288728295e-01 4.258917261148376e-02
-1.299605225052550e-01 3.270220134608484e-01 4.312036877234426e-02
-1.315981066007597e-01 3.311918912891673e-01 4.345292830102387e-02
-1.564014887805749e-01 3.936458466338622e-01 4.749037096805075e-02
-1.676097833634653e-01 4.216655145571169e-01 4.867741684638283e-02
-1.856792101466416e-01 4.669171943831372e-01 4.981313905478935e-02
-2.069954289225842e-01 5.202966954177244e-01 5.005427853816613e-02
-2.266958831447630e-01 5.695111641869288e-01 4.934920266549270e-02
-2.397584301326361e-01 6.020359745453309e-01 4.844351595863650e-02
-2.478164285152802e-01 6.220463253267536e-01 4.772453172500946e-02
-2.673434050678776e-01 6.703400385968084e-01 4.551373829082728e-02
-2.991543184218899e-01 7.483162238195216e-01 4.064115748708375e-02
-3.371711921004104e-01 8.401915008329095e-01 3.305690275801787e-02
-3.727435830474253e-01 9.247265870730976e-01 2.450838203834138e-02
-3.965468388987816e-01 9.804768628110023e-01 1.811855380272220e-02
5.600306679652023e-02 1.150659562952361e-01 4.297530615621881e-03
5.012569872986150e-02 1.114351965596443e-01 3.621332167936586e-03
4.185453517040660e-02 1.057749971780675e-01 2.656814742566738e-03
3.362467824454396e-02 9.939416492324549e-02 1.634825612125468e-03
2.713561154749111e-02 9.377109300832853e-02 7.264557872215249e-04
2.328424090675107e-02 9.018254206254539e-02 1.140893884095107e-04
6.885565460425180e-03 7.350663816917602e-02 -3.602870977776007e-03
6.391422673840297e-03 7.299761837090590e-02 -3.751385638034677e-03
5.620550447549721e-03 7.220643440086749e-02 -3.987779161292337e-03
4.747835669689837e-03 7.131563875008751e-02 -4.262308952370120e-03
3.972540104299482e-03 7.052929576996336e-02 -4.512308537279353e-03
3.473368593508219e-03 7.002577950705824e-02 -4.676291406067179e-03
2.180182361598793e-02 8.875435292727585e-02 -1.411296800277739e-04
1.960961880251400e-02 8.659884815812147e-02 -5.420687581878525e-04
1.629933748188239e-02 8.325957472666989e-02 -1.208569057610021e-03
1.267358152248477e-02 7.951970179404722e-02 -2.036549465991300e-03
9.521677866166978e-03 7.623950823001890e-02 -2.850331164651720e-03
7.509526531823463e-03 7.415116909133568e-02 -3.418708804677095e-03
1.867132586800873e-01 1.587821129251967e-01 2.304680663131720e-02
1.608490458250320e-01 1.531280024056365e-01 1.878587769265216e-02
1.262791797227178e-01 1.440244989510556e-01 1.345924493458384e-02
9.466297416714520e-02 1.333998243492485e-01 9.038802884273167e-03
7.228298919569198e-02 1.237754627010101e-01 6.211357805275597e-03
6.027698366618706e-02 1.175292085208654e-01 4.791659279783644e-03
-1.308343180620317e-02 -1.854491443645578e-03 -4.416697543039305e-03
-1.169822431383485e-02 -4.029066390532354e-03 -3.667184333764339e-03
-9.185188370883696e-03 -6.031088747357027e-03 -2.530738475165606e-03
-5.912181815120557e-03 -5.987463707176954e-03 -1.366543569403689e-03
-2.713781757745413e-03 -3.633116154132754e-03 -5.147274269710067e-04
-5.494101464478887e-04 -8.551015925861716e-04 -8.879880195067358e-05
2.693306308087173e-03 6.923047232512591e-02 -4.933959621075346e-03
1.855523382187085e-04 6.644716299436215e-02 -5.736631389659408e-03
-3.329753050218653e-03 6.184940621828272e-02 -6.782691911269012e-03
-6.747541336882268e-03 5.634249792793955e-02 -7.683019390920975e-03
-9.306302211536721e-03 5.125631090595606e-02 -8.249778255807527e-03
-1.072659748957561e-02 4.791772400200345e-02 -8.507550393375141e-03
-1.134394309855757e-02 4.631272682492116e-02 -8.602753815889486e-03
-1.242338830901191e-02 4.321679416981528e-02 -8.737709167423446e-03
-1.383919052346982e-02 3.837248553716333e-02 -8.830028723998851e-03
-1.506492710470253e-02 3.292303652606299e-02 -8.775579696584046e-03
-1.583607105426549e-02 2.816886113692896e-02 -8.600832126111513e-03
-1.618262906154400e-02 2.517539750200326e-02 -8.432169125935474e-03
-1.634039614809185e-02 2.336032526969423e-02 -8.308018757642088e-03
-1.655151063518279e-02 1.912583255201405e-02 -7.953458095730781e-03
-1.643673806166301e-02 1.291837144587504e-02 -7.260977956605075e-03
-1.570928708978986e-02 6.646508516182092e-03 -6.318652330829622e-03
-1.458769210102262e-02 1.914682888385255e-03 -5.387203686673558e-03
-1.365418888259812e-02 -6.422165717173689e-04 -4.760968916414754e-03
-1.364583804355235e-02 4.893211087054833e-02 5.817627893872412e-03
-1.448150864346864e-02 5.279288989050229e-02 6.240472920808315e-03
-1.582963175188501e-02 5.907693671043712e-02 6.906035713491576e-03
-1.742073821278967e-02 6.656323193363389e-02 7.662428974136049e-03
-1.889134660462022e-02 7.353230025172508e-02 8.331195971489791e-03
-1.986626601538721e-02 7.817185388334263e-02 8.757683735570509e-03
-6.910256305806162e-03 1.959019270561180e-02 2.267010379714662e-03
-7.718564532198491e-03 2.285836784010414e-02 2.689486350671899e-03
-9.047011268928817e-03 2.842488051136177e-02 3.395393707009475e-03
-1.065050225298714e-02 3.539665143111387e-02 4.251584038843959e-03
-1.216371194543764e-02 4.216662198598098e-02 5.051051544931795e-03
-1.318207007461114e-02 4.680296213205853e-02 5.579892454040447e-03
-1.642678250607238e-04 1.073774829815077e-04 -2.166712206985721e-05
-8.660811490907583e-04 9.213662900611208e-04 -3.045953450708794e-05
-2.096265336116176e-03 3.394414097872833e-03 1.886874090573087e-04
-3.692542490674300e-03 7.916010597726730e-03 7.393693099935206e-04
-5.295925909883148e-03 1.341463499739054e-02 1.457651775570667e-03
-6.422015096640032e-03 1.766828554022448e-02 2.016307353265745e-03
-3.190014333650804e-02 1.357511061693342e-01 1.284691784101710e-02
-3.262022571855838e-02 1.391811336017768e-01 1.302229292807411e-02
-3.375928798809813e-02 1.445984232686886e-01 1.328405985056236e-02
-3.507109793674190e-02 1.508233285837280e-01 1.356195944481797e-02
-3.625539336841488e-02 1.564293234721644e-01 1.379139297067766e-02
-3.702689959390604e-02 1.600738826178557e-01 1.393000946186973e-02
-2.046074958486288e-02 8.100688667968742e-02 9.010975903922969e-03
-2.188878375919801e-02 8.783100720089249e-02 9.598079474748999e-03
-2.421105909724930e-02 9.895437454530948e-02 1.048738252853809e-02
-2.697905339653039e-02 1.122233788871915e-01 1.144019609262159e-02
-2.956135253718450e-02 1.245854805693978e-01 1.222391946170731e-02
-3.128499777838467e-02 1.328178705470541e-01 1.269099354707848e-02
-4.677281809522138e-02 2.104844028184024e-01 1.504598249931988e-02
-4.875831831007327e-02 2.217571764877977e-01 1.509045887649307e-02