<?xml version="1.0" ?> 
<!-- 
# vtk DataFile Version 3.0
-->
<VTKFile type="UnstructuredGrid" version="0.1" compressor="vtkZLibDataCompressor" byte_order="LittleEndian">
  <UnstructuredGrid>
    <FieldData>
      <DataArray type="Float64" Name="TIME" NumberOfTuples="1" format="ascii">
3.000000000000000e+00 
      </DataArray>
    </FieldData>

    <Piece NumberOfPoints="432" NumberOfCells="72" >
      <Points>
        <DataArray type="Float64" NumberOfComponents="3" format="ascii">
9.973911591788898e-01 7.070227589081610e-02 1.734723475976807e-18
9.866079055849689e-01 1.604724746216808e-01 9.052113923733608e-02
9.677281551817672e-01 2.489285738135704e-01 1.810609804369239e-01
9.410340994363497e-01 3.353893029994464e-01 2.716122048731829e-01
9.068079298157803e-01 4.191733917122700e-01 3.621674938205327e-01
8.653318377871236e-01 4.995995694850024e-01 4.527195285533925e-01
8.653318377871235e-01 4.995995694850022e-01 4.527195285533924e-01
8.605935687104741e-01 5.077776978794243e-01 4.621758868214506e-01
8.557796256808260e-01 5.159109958802028e-01 4.716321214365536e-01
8.508903301290903e-01 5.239986874844731e-01 4.810882240622883e-01
8.459260034861780e-01 5.320399966893699e-01 4.905441863622415e-01
8.408869671830003e-01 5.400341474920286e-01 5.000000000000000e-01
8.408869671830003e-01 5.400341474920286e-01 5.000000000000000e-01
8.170774955110514e-01 5.757154463334713e-01 5.429299610654804e-01
7.917646570400524e-01 6.103359884100288e-01 5.858559054975615e-01
7.649785358054282e-01 6.438231444353626e-01 6.287770530572027e-01
7.367492158426024e-01 6.761042851231326e-01 6.716926235053624e-01
7.071067811870000e-01 7.071067811870000e-01 7.146018366030000e-01
7.071067811870000e-01 7.071067811870000e-01 7.146018366030000e-01
6.691016037974173e-01 7.430891368162242e-01 7.669627129807183e-01
6.292163288871028e-01 7.769574820022150e-01 8.193327996434071e-01
5.875829215012992e-01 8.086571550334666e-01 8.717106789221666e-01
5.443333466852489e-01 8.381334941984719e-01 9.240949331480958e-01
4.995995694841945e-01 8.653318377857246e-01 9.764841446522946e-01
4.995995694841946e-01 8.653318377857246e-01 9.764841446522946e-01
4.955157643366407e-01 8.676601165704597e-01 9.811872627763817e-01
4.914211576987000e-01 8.699695581817147e-01 9.858904083987370e-01
4.873158450338375e-01 8.722601230772283e-01 9.905935804938192e-01
4.831999218055175e-01 8.745317717147383e-01 9.952967780360872e-01
4.790734834772050e-01 8.767844645519829e-01 1.000000000000000e+00
4.790734834772048e-01 8.767844645519829e-01 1.000000000000000e+00
3.890104188713991e-01 9.201280729253531e-01 1.100018287407536e+00
2.951535476477962e-01 9.545016748023530e-01 1.200037292864345e+00
1.984208603793756e-01 9.795250260374694e-01 1.300047154617385e+00
9.973034763911702e-02 9.948178824851895e-01 1.400038010913617e+00
0.000000000000000e+00 1.000000000000000e+00 1.500000000000000e+00
1.000000000000000e-01 3.000000000000000e-01 2.500000000000000e+00
1.800000000000127e-01 3.000000000000000e-01 2.541904761904731e+00
2.600000000000177e-01 3.000000000000000e-01 2.583809523809476e+00
3.400000000000162e-01 3.000000000000000e-01 2.625714285714233e+00
4.200000000000099e-01 3.000000000000000e-01 2.667619047619000e+00
4.999999999999999e-01 3.000000000000000e-01 2.709523809523774e+00
4.999999999999999e-01 3.000000000000000e-01 2.709523809523774e+00
5.999999999999958e-01 2.999999999999999e-01 2.761904761904752e+00
6.999999999999910e-01 3.000000000000000e-01 2.814285714285731e+00
7.999999999999883e-01 3.000000000000000e-01 2.866666666666708e+00
8.999999999999901e-01 3.000000000000000e-01 2.919047619047674e+00
9.999999999999996e-01 2.999999999999999e-01 2.971428571428627e+00
1.054545454545373e+00 3.000000000000000e-01 3.000000000000000e+00
1.073636363636297e+00 3.000000000000000e-01 3.010000000000002e+00
1.092727272727222e+00 3.000000000000000e-01 3.020000000000003e+00
1.111818181818148e+00 3.000000000000000e-01 3.030000000000003e+00
1.130909090909074e+00 3.000000000000000e-01 3.040000000000002e+00
1.150000000000000e+00 3.000000000000000e-01 3.050000000000000e+00
9.999999999999997e-01 3.000000000000000e-01 2.971428571428627e+00
1.010909090909074e+00 3.000000000000000e-01 2.977142857142902e+00
1.021818181818148e+00 3.000000000000000e-01 2.982857142857177e+00
1.032727272727223e+00 3.000000000000000e-01 2.988571428571452e+00
1.043636363636297e+00 3.000000000000000e-01 2.994285714285726e+00
1.054545454545372e+00 3.000000000000000e-01 3.000000000000000e+00
1.150000000000000e+00 3.000000000000000e-01 3.050000000000000e+00
1.220000000000010e+00 3.000000000000000e-01 3.086666666666638e+00
1.290000000000014e+00 2.999999999999999e-01 3.123333333333286e+00
1.360000000000014e+00 3.000000000000000e-01 3.159999999999946e+00
1.430000000000009e+00 3.000000000000000e-01 3.196666666666613e+00
1.500000000000000e+00 3.000000000000000e-01 3.233333333333286e+00
1.500000000000000e+00 2.999999999999999e-01 3.233333333333286e+00
1.599999999999998e+00 3.000000000000000e-01 3.285714285714262e+00
1.699999999999996e+00 3.000000000000000e-01 3.338095238095244e+00
1.799999999999992e+00 2.999999999999999e-01 3.390476190476222e+00
1.899999999999993e+00 2.999999999999999e-01 3.442857142857195e+00
2.000000000000000e+00 3.000000000000000e-01 3.495238095238156e+00
9.973911591791951e-01 7.070227588610377e-02 5.000000000000000e+00
9.866079055854686e-01 1.604724746176835e-01 5.090521139237362e+00
9.677281551822733e-01 2.489285738104687e-01 5.181060980436796e+00
9.410340994367078e-01 3.353893029973388e-01 5.271612204872792e+00
9.068079298158701e-01 4.191733917111734e-01 5.362167493819837e+00
8.653318377868586e-01 4.995995694848513e-01 5.452719528552424e+00
8.653318377868584e-01 4.995995694848515e-01 5.452719528552424e+00
8.605935687100599e-01 5.077776978795506e-01 5.462175886820673e+00
8.557796256802587e-01 5.159109958806026e-01 5.471632121435969e+00
8.508903301283657e-01 5.239986874851421e-01 5.481088224061898e+00
8.459260034852926e-01 5.320399966903043e-01 5.490544186362046e+00
8.408869671819502e-01 5.400341474932241e-01 5.500000000000000e+00
8.408869671819506e-01 5.400341474932233e-01 5.500000000000000e+00
8.170774955101265e-01 5.757154463344801e-01 5.542929961064788e+00
7.917646570392929e-01 6.103359884108311e-01 5.585855905496214e+00
7.649785358048763e-01 6.438231444359314e-01 5.628777053055247e+00
7.367492158423030e-01 6.761042851234359e-01 5.671692623502854e+00
7.071067811870000e-01 7.071067811870000e-01 5.714601836600000e+00
7.071067811870000e-01 7.071067811870000e-01 5.714601836600000e+00
6.691016037973790e-01 7.430891368162706e-01 5.766962712977814e+00
6.292163288870563e-01 7.769574820022930e-01 5.819332799640633e+00
5.875829215012693e-01 8.086571550335622e-01 5.871710678919552e+00
5.443333466852559e-01 8.381334941985741e-01 5.924094933145664e+00
4.995995694842540e-01 8.653318377858240e-01 5.976484144650065e+00
4.995995694842541e-01 8.653318377858241e-01 5.976484144650065e+00
4.955157643363342e-01 8.676601165707691e-01 5.981187262774597e+00
4.914211576980256e-01 8.699695581822307e-01 5.985890408397397e+00
4.873158450327931e-01 8.722601230779471e-01 5.990593580492926e+00
4.831999218041015e-01 8.745317717156565e-01 5.995296778035640e+00
4.790734834754157e-01 8.767844645530971e-01 6.000000000000000e+00
4.790734834754157e-01 8.767844645530969e-01 5.999999999999999e+00
3.890104188699743e-01 9.201280729261141e-01 6.100018287407603e+00
2.951535476467757e-01 9.545016748028081e-01 6.200037292864483e+00
1.984208603787563e-01 9.795250260376838e-01 6.300047154617559e+00
9.973034763885236e-02 9.948178824852461e-01 6.400038010913756e+00
0.000000000000000e+00 1.000000000000000e+00 6.500000000000000e+00
1.000000000000000e-01 3.000000000000000e-01 7.500000000000000e+00
1.800000000000128e-01 3.000000000000000e-01 7.541904761904729e+00
2.600000000000176e-01 2.999999999999999e-01 7.583809523809474e+00
3.400000000000162e-01 3.000000000000000e-01 7.625714285714233e+00
4.200000000000100e-01 3.000000000000000e-01 7.667619047619000e+00
4.999999999999999e-01 3.000000000000000e-01 7.709523809523774e+00
5.000000000000000e-01 3.000000000000000e-01 7.709523809523774e+00
5.999999999999959e-01 3.000000000000000e-01 7.761904761904751e+00
6.999999999999911e-01 2.999999999999999e-01 7.814285714285733e+00
7.999999999999886e-01 3.000000000000000e-01 7.866666666666709e+00
8.999999999999907e-01 2.999999999999999e-01 7.919047619047674e+00
1.000000000000000e+00 3.000000000000000e-01 7.971428571428629e+00
1.054545454545370e+00 3.000000000000000e-01 7.999999999999999e+00
1.073636363636294e+00 2.999999999999999e-01 8.010000000000000e+00
1.092727272727220e+00 3.000000000000000e-01 8.020000000000001e+00
1.111818181818146e+00 3.000000000000000e-01 8.030000000000003e+00
1.130909090909073e+00 3.000000000000000e-01 8.040000000000003e+00
1.150000000000000e+00 3.000000000000000e-01 8.050000000000001e+00
9.999999999999996e-01 3.000000000000000e-01 7.971428571428627e+00
1.010909090909073e+00 3.000000000000000e-01 7.977142857142903e+00
1.021818181818147e+00 3.000000000000000e-01 7.982857142857179e+00
1.032727272727221e+00 3.000000000000000e-01 7.988571428571451e+00
1.043636363636295e+00 3.000000000000000e-01 7.994285714285724e+00
1.054545454545370e+00 3.000000000000000e-01 7.999999999999999e+00
1.150000000000000e+00 3.000000000000000e-01 8.050000000000001e+00
1.220000000000010e+00 3.000000000000000e-01 8.086666666666639e+00
1.290000000000014e+00 3.000000000000000e-01 8.123333333333287e+00
1.360000000000013e+00 2.999999999999999e-01 8.159999999999945e+00
1.430000000000008e+00 3.000000000000000e-01 8.196666666666616e+00
1.500000000000000e+00 3.000000000000000e-01 8.233333333333286e+00
1.500000000000000e+00 3.000000000000000e-01 8.233333333333286e+00
1.599999999999998e+00 2.999999999999999e-01 8.285714285714262e+00
1.699999999999995e+00 3.000000000000000e-01 8.338095238095244e+00
1.799999999999992e+00 3.000000000000000e-01 8.390476190476223e+00
1.899999999999993e+00 3.000000000000000e-01 8.442857142857196e+00
2.000000000000000e+00 3.000000000000000e-01 8.495238095238156e+00
[...]
  <PointData>
        <DataArray type="Float64" Name="displacement" NumberOfComponents="3" format="ascii">
2.707638617920696e-01 2.561292503303773e-01 2.826989606892689e-02
2.077339651876667e-01 2.354996693472095e-01 1.623460396440297e-02
1.553563855366987e-01 2.130804063234739e-01 7.887430891523439e-03
1.124226176707799e-01 1.894880306843970e-01 2.473332096587066e-03
7.772415642152475e-02 1.653391118552053e-01 -7.627371741075750e-04
5.005249662054834e-02 1.412502192611252e-01 -2.575821674261458e-03
5.005249662054856e-02 1.412502192611255e-01 -2.575821674261347e-03
4.751894779249910e-02 1.387628901680021e-01 -2.713652222787244e-03
4.504748118703739e-02 1.362836428477777e-01 -2.845057744091606e-03
4.263672025326526e-02 1.338131796054297e-01 -2.970898273829292e-03
4.028528844028534e-02 1.313522027459368e-01 -3.092033847654219e-03
3.799180919719980e-02 1.289014145742765e-01 -3.209324501221078e-03
3.799180919719980e-02 1.289014145742765e-01 -3.209324501221078e-03
2.826990482358860e-02 1.179215476689047e-01 -3.717080487898428e-03
1.958543050044792e-02 1.072319210271295e-01 -4.243799846166296e-03
1.180954919144095e-02 9.689826624821907e-02 -4.869976835307654e-03
4.813423860230870e-03 8.698631493144204e-02 -5.676105714605417e-03
-1.531782529519576e-03 7.756179867606716e-02 -6.742680743341833e-03
-1.531782529519576e-03 7.756179867606716e-02 -6.742680743341833e-03
-8.163748710365959e-03 6.656331609799004e-02 -7.996749257640046e-03
-1.333961956075891e-02 5.598381146711062e-02 -8.803982036873492e-03
-1.717336714312190e-02 4.591878185637710e-02 -9.211324068670423e-03
-1.977896351987840e-02 3.646372433873812e-02 -9.265720340659311e-03
-2.127038075345156e-02 2.771413598714223e-02 -9.014115840468739e-03
-2.127038075345167e-02 2.771413598714234e-02 -9.014115840468961e-03
-2.135364841598952e-02 2.696645567953881e-02 -8.978161487233627e-03
-2.142893839465349e-02 2.622529901085835e-02 -8.940153502667747e-03
-2.149633313679161e-02 2.549073506364741e-02 -8.900125846758034e-03
-2.155591508975102e-02 2.476283292045367e-02 -8.858112479491087e-03
-2.160776670087955e-02 2.404166166382393e-02 -8.814147360853286e-03
-2.160776670087960e-02 2.404166166382393e-02 -8.814147360853286e-03
-2.103172147273963e-02 1.042615693595927e-02 -7.479525541187471e-03
-1.779009649223579e-02 5.499305766076823e-04 -5.604235720548356e-03
-1.267571745571391e-02 -4.922709585193918e-03 -3.514842073657043e-03
-6.481410059520007e-03 -5.327455720408936e-03 -1.537908775233854e-03
0.000000000000000e+00 0.000000000000000e+00 0.000000000000000e+00
0.000000000000000e+00 0.000000000000000e+00 0.000000000000000e+00
-1.576416935872238e-03 1.943119782113922e-03 -4.396408781048855e-04
-3.839537671366133e-03 7.218188289184746e-03 -1.679229532802751e-04
-6.798095962408879e-03 1.571940296013569e-02 7.056078637481811e-04
-1.046082556492750e-02 2.734096123388957e-02 2.071405662257941e-03
-1.483646023484936e-02 4.197706054936973e-02 3.819924531525576e-03
-1.483646023484952e-02 4.197706054936973e-02 3.819924531525576e-03
-2.132183165458346e-02 6.435019944450937e-02 6.376888275496206e-03
-2.895182185281697e-02 9.106159658856100e-02 9.146731350138548e-03
-3.774348894659496e-02 1.219046063544211e-01 1.191549689857085e-02
-4.771389105296275e-02 1.566725831149863e-01 1.446922806391093e-02
-5.888008628896546e-02 1.951588812431532e-01 1.659396798927881e-02
-6.548085063965092e-02 2.176447320393375e-01 1.749558604811652e-02
-6.787688087541244e-02 2.257554067713834e-01 1.775953432692257e-02
-7.031757282941209e-02 2.339885231275664e-01 1.799430742536634e-02
-7.280304519077330e-02 2.423426432828276e-01 1.819841664738941e-02
-7.533341664861770e-02 2.508163294121089e-01 1.837037329693558e-02
-7.790880589206783e-02 2.594081436903521e-01 1.850868867794953e-02
-5.888008628896546e-02 1.951588812431532e-01 1.659396798927837e-02
-6.017128271041750e-02 1.995735408442502e-01 1.679070592524079e-02
-6.147693521013697e-02 2.040297240066437e-01 1.697951447329693e-02
-6.279706593419876e-02 2.085271624481070e-01 1.716011585925603e-02
-6.413169702867816e-02 2.130655878864136e-01 1.733223230892689e-02
-6.548085063965081e-02 2.176447320393370e-01 1.749558604811696e-02
-7.790880589206783e-02 2.594081436903521e-01 1.850868867794953e-02
-8.743068329055093e-02 2.915974718516391e-01 1.874212360948624e-02
-9.700308117762502e-02 3.247768806325535e-01 1.854501676399778e-02
-1.067134627829407e-01 3.590178963333577e-01 1.790223434333349e-02
-1.166492913361483e-01 3.943920452543140e-01 1.679864254934893e-02
-1.268980300668978e-01 4.309708536956849e-01 1.521910758389566e-02
-1.268980300668976e-01 4.309708536956848e-01 1.521910758389522e-02
-1.422552852560179e-01 4.854578112324182e-01 1.210701049107632e-02
-1.586846238698774e-01 5.427577611153221e-01 7.948593640593415e-03
-1.764410407471062e-01 6.030792348320420e-01 2.699735171957318e-03
-1.957795307263364e-01 6.666307638702237e-01 -3.683686775319828e-03
-2.169550886461993e-01 7.336208797175117e-01 -1.124579406172632e-02
3.457056161774081e-01 3.504479677182616e-01 3.770029309055900e-02
2.720419500686901e-01 3.190034304197290e-01 2.452882883483642e-02
2.097590137056672e-01 2.880846688140473e-01 1.438527664845424e-02
1.577685815129787e-01 2.577222000501793e-01 6.858976654946503e-03
1.149824279152661e-01 2.279465412770877e-01 1.539268977845509e-03
8.031232733717053e-02 1.987882096437357e-01 -1.984506259315566e-03
8.031232733717053e-02 1.987882096437356e-01 -1.984506259314678e-03
7.711557748940490e-02 1.957798828207485e-01 -2.265553148876442e-03
7.399423893769752e-02 1.927786566419473e-01 -2.531958963293945e-03
7.094707213592855e-02 1.897845658679692e-01 -2.784191465746488e-03
6.797283753797689e-02 1.867976452594501e-01 -3.022718419416037e-03
6.507029559772304e-02 1.838179295770267e-01 -3.248007587483670e-03
6.507029559772348e-02 1.838179295770270e-01 -3.248007587482782e-03
5.275964361466667e-02 1.703807514970379e-01 -4.117215208400360e-03
4.178530912187761e-02 1.570960668653313e-01 -4.766959420531514e-03
3.203127792127336e-02 1.439671290722383e-01 -5.241020095745341e-03
2.338153581477154e-02 1.309971915080897e-01 -5.583177105913606e-03
1.572006860428898e-02 1.181895075632167e-01 -5.837210322899189e-03
1.572006860428898e-02 1.181895075632167e-01 -5.837210322899189e-03
7.792949381751013e-03 1.031612995422110e-01 -5.953350460188744e-03
1.497950834062900e-03 8.913602807566823e-02 -5.786205115895449e-03
-3.314770986991955e-03 7.611792347255131e-02 -5.384500987964280e-03
-6.795060029629818e-03 6.411121604182302e-02 -4.796964774331336e-03
-9.092760242067288e-03 5.312013609244615e-02 -4.072323172936265e-03
-9.092760242067288e-03 5.312013609244615e-02 -4.072323172936265e-03
-9.246283156250812e-03 5.218330074041699e-02 -4.002226786989027e-03
-9.391592131617832e-03 5.125468693432012e-02 -3.931453453563272e-03
-9.528795565225012e-03 5.033429773435938e-02 -3.860038421534817e-03
-9.658001854128739e-03 4.942213620073876e-02 -3.788016939774153e-03
-9.779319395385788e-03 4.851820539366225e-02 -3.715424257161537e-03
-9.779319395385844e-03 4.851820539366225e-02 -3.715424257161537e-03
-1.069061317385495e-02 3.125015876567705e-02 -2.101224979146998e-03
-9.125966249416528e-03 1.773488754583996e-02 -5.836245995247680e-04
-6.127740496205014e-03 8.001819100629248e-03 4.984185668064356e-04
-2.738297788354757e-03 2.080380796523285e-03 8.059462049478938e-04
0.000000000000000e+00 0.000000000000000e+00 0.000000000000000e+00
0.000000000000000e+00 0.000000000000000e+00 0.000000000000000e+00
-2.734610378159585e-03 2.946785311009059e-03 -1.453711663783608e-04
-7.273531167856118e-03 1.175437992160266e-02 1.042533284683955e-03
-1.351796105506842e-02 2.599704238170830e-02 3.370946543879150e-03
-2.136909872577503e-02 4.524903124125340e-02 6.647101801892319e-03
-3.072814286595466e-02 6.908460505016539e-02 1.067823224941300e-02
-3.072814286595477e-02 6.908460505016545e-02 1.067823224941300e-02
-4.439692388704786e-02 1.046761481560118e-01 1.648516098300234e-02
-6.007446039708697e-02 1.459327954598338e-01 2.279404263621299e-02
-7.756778107962392e-02 1.920230206919578e-01 2.922837953461155e-02
-9.668391461821069e-02 2.421152975827107e-01 3.541167400376111e-02
-1.172298896963989e-01 2.953780998624190e-01 4.096742836922385e-02
-1.289704341470563e-01 3.254694993318688e-01 4.359869416796247e-02
-1.331607679465756e-01 3.361409226903510e-01 4.443775689390073e-02
-1.373910021564114e-01 3.468752776020996e-01 4.523012183918951e-02
-1.416597940963511e-01 3.576667783685544e-01 4.597316936072993e-02
-1.459658010861838e-01 3.685096392911556e-01 4.666427981542576e-02
-1.503076804456973e-01 3.793980746713428e-01 4.730083356017900e-02
-1.172298896963989e-01 2.953780998624185e-01 4.096742836922207e-02
-1.195495611478151e-01 3.013450259001684e-01 4.151953447317425e-02
-1.218837018478410e-01 3.073387084132415e-01 4.205920290140508e-02
-1.242320612672249e-01 3.133580678543846e-01 4.258594485753342e-02
-1.265943888767141e-01 3.194020246763448e-01 4.309927154517990e-02
-1.289704341470563e-01 3.254694993318688e-01 4.359869416796247e-02
-1.503076804456973e-01 3.793980746713428e-01 4.730083356017900e-02
-1.665957868220351e-01 4.202750409821157e-01 4.914514477847476e-02
-1.835036609247542e-01 4.628721250571620e-01 5.021829761134633e-02
-2.010496830414967e-01 5.071408390812133e-01 5.052304475533909e-02
-2.192522334599061e-01 5.530326952389994e-01 5.006213890699129e-02
-2.381296924676248e-01 6.004992057152523e-01 4.883833276285365e-02
-2.381296924676251e-01 6.004992057152521e-01 4.883833276285365e-02
-2.663046899020831e-01 6.709439221539454e-01 4.577209703988494e-02
-2.959481494400651e-01 7.443619002164557e-01 4.116256504014260e-02
-3.271136579260105e-01 8.206117760098695e-01 3.501776211797569e-02
-3.598548022043573e-01 8.995521856412745e-01 2.734571362773508e-02
-3.942251691195449e-01 9.810417652177572e-01 1.815444492377516e-02
3.486821348525895e-01 3.559334145752432e-01 3.732711430371793e-02
2.746566296880972e-01 3.240649747386267e-01 2.407465568080269e-02
2.120647282843479e-01 2.927541116753705e-01 1.390496948662800e-02
1.598052204327246e-01 2.620267302450438e-01 6.393313220129926e-03
1.167768959246107e-01 2.319087353072155e-01 1.114944380235627e-03
8.187854455139021e-02 2.024260317214552e-01 -2.354879534113508e-03
8.187854455138999e-02 2.024260317214552e-01 -2.354879534111731e-03
7.865823472489286e-02 1.993846783949531e-01 -2.630134330434686e-03
7.551333160735418e-02 1.963505660852450e-01 -2.890780126916681e-03
7.244258086247390e-02 1.933237242993265e-01 -3.137300727590997e-03
6.944472815395242e-02 1.903041825441947e-01 -3.370179936485584e-03
6.651851914548979e-02 1.872919703268459e-01 -3.589901557633723e-03
6.651851914548990e-02 1.872919703268461e-01 -3.589901557631947e-03
5.409939071058456e-02 1.737086720342892e-01 -4.435279444663820e-03
4.301388138475137e-02 1.602798359461692e-01 -5.064679131717043e-03
3.314459269641801e-02 1.470082237431317e-01 -5.523381819465101e-03
2.437412617401169e-02 1.338965971058221e-01 -5.856668708572599e-03
1.658508334596021e-02 1.209477177148859e-01 -6.109820999716575e-03
1.658508334596021e-02 1.209477177148859e-01 -6.109820999716575e-03
8.506377817045885e-03 1.057386522605117e-01 -6.225635451245992e-03
2.076889182563324e-03 9.151744627423730e-02 -6.049615803471298e-03
-2.854075380317456e-03 7.829170874865787e-02 -5.631873262352372e-03
-6.437208694426877e-03 6.606904867636942e-02 -5.022519033861528e-03
-8.823203582594530e-03 5.485707504996740e-02 -4.271664323962199e-03
-8.823203582594530e-03 5.485707504996740e-02 -4.271664323962199e-03
-8.983969865109187e-03 5.390028374364986e-02 -4.199047008809131e-03
-9.136412416136053e-03 5.295170383724956e-02 -4.125729487036267e-03
-9.280640246807081e-03 5.201134083510872e-02 -4.051748009072043e-03
-9.416762368254561e-03 5.107920024156987e-02 -3.977138825343118e-03
-9.544887791610557e-03 5.015528756097520e-02 -3.901938186283260e-03
-9.544887791610723e-03 5.015528756097487e-02 -3.901938186283260e-03
-1.057652351607286e-02 3.246614587705587e-02 -2.229324307471359e-03
-9.089585684841306e-03 1.855311572106433e-02 -6.542341590183298e-04
-6.132341212217590e-03 8.469127650934771e-03 4.747428686560085e-04
-2.753057012503307e-03 2.267112224601631e-03 8.090173851353910e-04
0.000000000000000e+00 0.000000000000000e+00 0.000000000000000e+00
0.000000000000000e+00 0.000000000000000e+00 0.000000000000000e+00
-2.791807202090740e-03 3.028281947290323e-03 -1.463590205883492e-04
-7.452493796069437e-03 1.208291199978323e-02 1.048657504243877e-03
-1.387465655125752e-02 2.671496077832003e-02 3.389594185605915e-03
-2.195089223697611e-02 4.647549890374220e-02 6.680995634610554e-03
-3.157379762254681e-02 7.091559699689087e-02 1.072740646236703e-02
-3.157379762254681e-02 7.091559699689087e-02 1.072740646236703e-02
-4.561381151069177e-02 1.073624349668847e-01 1.654938786692739e-02
-6.169290732200139e-02 1.495428180378478e-01 2.286392357422251e-02
-7.960131312155616e-02 1.965799310161104e-01 2.928926477782667e-02
-9.912925697443686e-02 2.475969587080033e-01 3.544366267131771e-02
-1.200669669457244e-01 3.017170859198567e-01 4.094536844827168e-02
-1.320067150978894e-01 3.322315015128287e-01 4.353467399660360e-02
-1.362636736359016e-01 3.430416977277209e-01 4.435675591488142e-02
-1.405587376994993e-01 3.539095020095818e-01 4.513089104256451e-02
-1.448904477110043e-01 3.648288135428530e-01 4.585442319955746e-02
-1.492573440927384e-01 3.757935315119755e-01 4.652469620577904e-02
-1.536579672670241e-01 3.867975551013907e-01 4.713905388113915e-02
-1.200669669457246e-01 3.017170859198568e-01 4.094536844827168e-02
-1.224274440952268e-01 3.077715331700523e-01 4.148983341683454e-02
-1.248019298262185e-01 3.138513366990409e-01 4.202149206972550e-02
-1.271901517976753e-01 3.199553581622286e-01 4.253984879316697e-02
-1.295918376685736e-01 3.260824592150215e-01 4.304440797338493e-02
-1.320067150978880e-01 3.322315015128253e-01 4.353467399660360e-02
-1.536579672670241e-01 3.867975551013907e-01 4.713905388113915e-02
-1.701808508938651e-01 4.281001769308772e-01 4.889569591190224e-02
-1.873679673514099e-01 4.711480601522847e-01 4.987367716304192e-02
-2.052340154965064e-01 5.158893021030719e-01 5.007574115507829e-02
-2.237936941860061e-01 5.622720001206978e-01 4.950463140852968e-02
-2.430617022767576e-01 6.102442515426214e-01 4.816309144390907e-02
-2.430617022767574e-01 6.102442515426214e-01 4.816309144390907e-02
-2.718453033871722e-01 6.814305304399262e-01 4.491558424721376e-02
-3.021473261813210e-01 7.556035523596476e-01 4.010936810657384e-02
-3.340106244692616e-01 8.326119975859231e-01 3.375244162407753e-02
-3.674780520610499e-01 9.123045464028887e-01 2.585280340181129e-02
-4.025924627667437e-01 9.945298790946820e-01 1.641845204186332e-02
5.754172132537960e-02 1.159689407318274e-01 4.474989960048248e-03
4.886361731128930e-02 1.106154002648759e-01 3.475841174505945e-03
4.114761560373825e-02 1.052579341262301e-01 2.572438345669781e-03
3.425221200755668e-02 9.990957408418555e-02 1.716700841727814e-03
2.803590232757491e-02 9.458335190703748e-02 8.605480308681024e-04
2.235718236862350e-02 8.929229936308103e-02 -4.410071871774335e-05
7.008521247037436e-03 7.363349821451448e-02 -3.566283118031421e-03
6.279855625030750e-03 7.288288350249639e-02 -3.785243517771875e-03
5.550022874249216e-03 7.213424179571526e-02 -4.009693057312802e-03
4.818560286336759e-03 7.138761570709906e-02 -4.239788956784452e-03
4.085005152937859e-03 7.064304784957565e-02 -4.475688436340164e-03
3.348894765696109e-03 6.990058083607331e-02 -4.717548716126174e-03
2.235718236862327e-02 8.929229936308081e-02 -4.410071871596699e-05
1.912283260818626e-02 8.611370754279890e-02 -6.352431185376872e-04
1.600212923570932e-02 8.295564549310797e-02 -1.272384587398534e-03
1.296373463129241e-02 7.982099923870134e-02 -1.966173096278112e-03
9.976311175035057e-03 7.671265480427258e-02 -2.727256616161355e-03
7.008521247037658e-03 7.363349821451459e-02 -3.566283118033198e-03
1.936319537985491e-01 1.601636279260439e-01 2.422116960219256e-02
1.554240711666101e-01 1.518303911738215e-01 1.792018217594915e-02
1.234427643359324e-01 1.431769223725280e-01 1.304367490225644e-02
9.695637557390735e-02 1.342706032279241e-01 9.343043377466387e-03
7.523324714792579e-02 1.251788154457701e-01 6.569683197943377e-03
5.754172132537927e-02 1.159689407318273e-01 4.474989960046472e-03
-1.339763254657655e-02 -1.214534923942856e-03 -4.603178124771290e-03
-1.135976951335155e-02 -4.427605116437916e-03 -3.499148658381301e-03
-8.936167288667779e-03 -6.122735425667547e-03 -2.430684861447929e-03
-6.191733325938920e-03 -6.089877146255307e-03 -1.453917985234199e-03
-3.191375078578453e-03 -4.118981572824865e-03 -6.249792809960297e-04
0.000000000000000e+00 0.000000000000000e+00 0.000000000000000e+00
3.348894765696109e-03 6.990058083607331e-02 -4.717548716126174e-03
-3.528381005033498e-04 6.579994636174558e-02 -5.903297984740874e-03
-3.627776303865349e-03 6.141511664936705e-02 -6.866347625974711e-03
-6.492128592552437e-03 5.679854525223793e-02 -7.620714786817473e-03
-8.962103714726055e-03 5.200268572365818e-02 -8.180416614271380e-03
-1.105391041854842e-02 4.707999161692811e-02 -8.559470255335100e-03
-1.105391041854831e-02 4.707999161692822e-02 -8.559470255335100e-03
-1.264827603384722e-02 4.251596307369798e-02 -8.759772434874691e-03
-1.395284747737802e-02 3.792984946029210e-02 -8.831665333698169e-03
-1.497998728481875e-02 3.336165750132924e-02 -8.785839936576778e-03
-1.574205799184825e-02 2.885139392142844e-02 -8.632987228297750e-03
-1.625142213414471e-02 2.443906544520857e-02 -8.383798193634107e-03
-1.625142213414471e-02 2.443906544520846e-02 -8.383798193634107e-03
-1.656759671995295e-02 1.819489183847234e-02 -7.863070509017689e-03
-1.640064610878778e-02 1.237910364937067e-02 -7.190348040456485e-03
-1.579022924596168e-02 7.120042226721801e-03 -6.399927407308326e-03
-1.477600507678711e-02 2.546048919344512e-03 -5.526105228959466e-03
-1.339763254657661e-02 -1.214534923942745e-03 -4.603178124767737e-03
-1.344137420665448e-02 4.799216076758955e-02 5.713073607367392e-03
-1.467327291891962e-02 5.368283999008427e-02 6.336437112153703e-03
-1.595566561678452e-02 5.966745319160577e-02 6.967138136836581e-03
-1.728924808293353e-02 6.594220028614634e-02 7.601183815364010e-03
-1.867471610005089e-02 7.250328118769739e-02 8.234581281691078e-03
-2.011276545082075e-02 7.934689581025123e-02 8.863337669783533e-03
-6.714360782653639e-03 1.881400754435236e-02 2.165938038032778e-03
-7.905732907128593e-03 2.362895148491662e-02 2.788290512313552e-03
-9.172666881557823e-03 2.896217683048485e-02 3.462521060267676e-03
-1.051661613614985e-02 3.480574552809473e-02 4.180288928019138e-03
-1.193903410111274e-02 4.115171952478380e-02 4.933253361677714e-03
-1.344137420665481e-02 4.799216076758972e-02 5.713073607367392e-03
0.000000000000000e+00 0.000000000000000e+00 0.000000000000000e+00
-1.033845320778992e-03 1.189196404968063e-03 -1.573010764843730e-05
-2.217171696155262e-03 3.692680112104385e-03 2.218777060143395e-04
-3.555011489407456e-03 7.482966371191946e-03 6.839443773145604e-04
-5.052397063814107e-03 1.253257043201361e-02 1.341590842546481e-03
-6.714360782653750e-03 1.881400754435253e-02 2.165938038029225e-03
-3.172221921401297e-02 1.349029813808185e-01 1.280239799772787e-02
-3.278390668388043e-02 1.399602435706349e-01 1.306108557563590e-02
-3.386443619053803e-02 1.450979472142588e-01 1.330726183620357e-02
-3.496393476474347e-02 1.503153985206337e-01 1.354019779203952e-02
-3.608252943725421e-02 1.556119036987038e-01 1.375916445576664e-02
-3.722034723882706e-02 1.609867689574124e-01 1.396343284000068e-02
-2.011276545082097e-02 7.934689581025128e-02 8.863337669783533e-03
-2.221775247794955e-02 8.940522069265661e-02 9.729010638114488e-03
-2.442927667108497e-02 1.000004489967497e-01 1.056674096463439e-02
-2.674925272697493e-02 1.111221234166968e-01 1.136554083978325e-02
-2.917959534236814e-02 1.227597866466641e-01 1.211442245399752e-02
-3.172221921401319e-02 1.349029813808183e-01 1.280239799772431e-02
-4.627606599184442e-02 2.077079801521076e-01 1.502361041772460e-02
-4.920521031871705e-02 2.243292258805056e-01 1.509027888658210e-02