<?xml version="1.0" ?> 
<!-- 
# vtk DataFile Version 3.0
-->
<VTKFile type="UnstructuredGrid" version="0.1" compressor="vtkZLibDataCompressor" byte_order="LittleEndian">
  <UnstructuredGrid>
    <FieldData>
      <DataArray type="Float64" Name="TIME" NumberOfTuples="1" format="ascii">
1.000000010000000e+00 
      </DataArray>
    </FieldData>

    <Piece NumberOfPoints="432" NumberOfCells="72" >
      <Points>
        <DataArray type="Float64" NumberOfComponents="3" format="ascii">
9.973911591788898e-01 7.070227589081610e-02 1.734723475976807e-18
9.866079055849689e-01 1.604724746216808e-01 9.052113923733608e-02
9.677281551817672e-01 2.489285738135704e-01 1.810609804369239e-01
9.410340994363497e-01 3.353893029994464e-01 2.716122048731829e-01
9.068079298157803e-01 4.191733917122700e-01 3.621674938205327e-01
8.653318377871236e-01 4.995995694850024e-01 4.527195285533925e-01
8.653318377871235e-01 4.995995694850022e-01 4.527195285533924e-01
8.605935687104741e-01 5.077776978794243e-01 4.621758868214506e-01
8.557796256808260e-01 5.159109958802028e-01 4.716321214365536e-01
8.508903301290903e-01 5.239986874844731e-01 4.810882240622883e-01
8.459260034861780e-01 5.320399966893699e-01 4.905441863622415e-01
8.408869671830003e-01 5.400341474920286e-01 5.000000000000000e-01
8.408869671830003e-01 5.400341474920286e-01 5.000000000000000e-01
8.170774955110514e-01 5.757154463334713e-01 5.429299610654804e-01
7.917646570400524e-01 6.103359884100288e-01 5.858559054975615e-01
7.649785358054282e-01 6.438231444353626e-01 6.287770530572027e-01
7.367492158426024e-01 6.761042851231326e-01 6.716926235053624e-01
7.071067811870000e-01 7.071067811870000e-01 7.146018366030000e-01
7.071067811870000e-01 7.071067811870000e-01 7.146018366030000e-01
6.691016037974173e-01 7.430891368162242e-01 7.669627129807183e-01
6.292163288871028e-01 7.769574820022150e-01 8.193327996434071e-01
5.875829215012992e-01 8.086571550334666e-01 8.717106789221666e-01
5.443333466852489e-01 8.381334941984719e-01 9.240949331480958e-01
4.995995694841945e-01 8.653318377857246e-01 9.764841446522946e-01
4.995995694841946e-01 8.653318377857246e-01 9.764841446522946e-01
4.955157643366407e-01 8.676601165704597e-01 9.811872627763817e-01
4.914211576987000e-01 8.699695581817147e-01 9.858904083987370e-01
4.873158450338375e-01 8.722601230772283e-01 9.905935804938192e-01
4.831999218055175e-01 8.745317717147383e-01 9.952967780360872e-01
4.790734834772050e-01 8.767844645519829e-01 1.000000000000000e+00
4.790734834772048e-01 8.767844645519829e-01 1.000000000000000e+00
3.890104188713991e-01 9.201280729253531e-01 1.100018287407536e+00
2.951535476477962e-01 9.545016748023530e-01 1.200037292864345e+00
1.984208603793756e-01 9.795250260374694e-01 1.300047154617385e+00
9.973034763911702e-02 9.948178824851895e-01 1.400038010913617e+00
0.000000000000000e+00 1.000000000000000e+00 1.500000000000000e+00
1.000000000000000e-01 3.000000000000000e-01 2.500000000000000e+00
1.800000000000127e-01 3.000000000000000e-01 2.541904761904731e+00
2.600000000000177e-01 3.000000000000000e-01 2.583809523809476e+00
3.400000000000162e-01 3.000000000000000e-01 2.625714285714233e+00
4.200000000000099e-01 3.000000000000000e-01 2.667619047619000e+00
4.999999999999999e-01 3.000000000000000e-01 2.709523809523774e+00
4.999999999999999e-01 3.000000000000000e-01 2.709523809523774e+00
5.999999999999958e-01 2.999999999999999e-01 2.761904761904752e+00
6.999999999999910e-01 3.000000000000000e-01 2.814285714285731e+00
7.999999999999883e-01 3.000000000000000e-01 2.866666666666708e+00
8.999999999999901e-01 3.000000000000000e-01 2.919047619047674e+00
9.999999999999996e-01 2.999999999999999e-01 2.971428571428627e+00
1.054545454545373e+00 3.000000000000000e-01 3.000000000000000e+00
1.073636363636297e+00 3.000000000000000e-01 3.010000000000002e+00
1.092727272727222e+00 3.000000000000000e-01 3.020000000000003e+00
1.111818181818148e+00 3.000000000000000e-01 3.030000000000003e+00
1.130909090909074e+00 3.000000000000000e-01 3.040000000000002e+00
1.150000000000000e+00 3.000000000000000e-01 3.050000000000000e+00
9.999999999999997e-01 3.000000000000000e-01 2.971428571428627e+00
1.010909090909074e+00 3.000000000000000e-01 2.977142857142902e+00
1.021818181818148e+00 3.000000000000000e-01 2.982857142857177e+00
1.032727272727223e+00 3.000000000000000e-01 2.988571428571452e+00
1.043636363636297e+00 3.000000000000000e-01 2.994285714285726e+00
1.054545454545372e+00 3.000000000000000e-01 3.000000000000000e+00
1.150000000000000e+00 3.000000000000000e-01 3.050000000000000e+00
1.220000000000010e+00 3.000000000000000e-01 3.086666666666638e+00
1.290000000000014e+00 2.999999999999999e-01 3.123333333333286e+00
1.360000000000014e+00 3.000000000000000e-01 3.159999999999946e+00
1.430000000000009e+00 3.000000000000000e-01 3.196666666666613e+00
1.500000000000000e+00 3.000000000000000e-01 3.233333333333286e+00
1.500000000000000e+00 2.999999999999999e-01 3.233333333333286e+00
1.599999999999998e+00 3.000000000000000e-01 3.285714285714262e+00
1.699999999999996e+00 3.000000000000000e-01 3.338095238095244e+00
1.799999999999992e+00 2.999999999999999e-01 3.390476190476222e+00
1.899999999999993e+00 2.999999999999999e-01 3.442857142857195e+00
2.000000000000000e+00 3.000000000000000e-01 3.495238095238156e+00
9.973911591791951e-01 7.070227588610377e-02 5.000000000000000e+00
9.866079055854686e-01 1.604724746176835e-01 5.090521139237362e+00
9.677281551822733e-01 2.489285738104687e-01 5.181060980436796e+00
9.410340994367078e-01 3.353893029973388e-01 5.271612204872792e+00
9.068079298158701e-01 4.191733917111734e-01 5.362167493819837e+00
8.653318377868586e-01 4.995995694848513e-01 5.452719528552424e+00
8.653318377868584e-01 4.995995694848515e-01 5.452719528552424e+00
8.605935687100599e-01 5.077776978795506e-01 5.462175886820673e+00
8.557796256802587e-01 5.159109958806026e-01 5.471632121435969e+00
8.508903301283657e-01 5.239986874851421e-01 5.481088224061898e+00
8.459260034852926e-01 5.320399966903043e-01 5.490544186362046e+00
8.408869671819502e-01 5.400341474932241e-01 5.500000000000000e+00
8.408869671819506e-01 5.400341474932233e-01 5.500000000000000e+00
8.170774955101265e-01 5.757154463344801e-01 5.542929961064788e+00
7.917646570392929e-01 6.103359884108311e-01 5.585855905496214e+00
7.649785358048763e-01 6.438231444359314e-01 5.628777053055247e+00
7.367492158423030e-01 6.761042851234359e-01 5.671692623502854e+00
7.071067811870000e-01 7.071067811870000e-01 5.714601836600000e+00
7.071067811870000e-01 7.071067811870000e-01 5.714601836600000e+00
6.691016037973790e-01 7.430891368162706e-01 5.766962712977814e+00
6.292163288870563e-01 7.769574820022930e-01 5.819332799640633e+00
5.875829215012693e-01 8.086571550335622e-01 5.871710678919552e+00
5.443333466852559e-01 8.381334941985741e-01 5.924094933145664e+00
4.995995694842540e-01 8.653318377858240e-01 5.976484144650065e+00
4.995995694842541e-01 8.653318377858241e-01 5.976484144650065e+00
4.955157643363342e-01 8.676601165707691e-01 5.981187262774597e+00
4.914211576980256e-01 8.699695581822307e-01 5.985890408397397e+00
4.873158450327931e-01 8.722601230779471e-01 5.990593580492926e+00
4.831999218041015e-01 8.745317717156565e-01 5.995296778035640e+00
4.790734834754157e-01 8.767844645530971e-01 6.000000000000000e+00
4.790734834754157e-01 8.767844645530969e-01 5.999999999999999e+00
3.890104188699743e-01 9.201280729261141e-01 6.100018287407603e+00
2.951535476467757e-01 9.545016748028081e-01 6.200037292864483e+00
1.984208603787563e-01 9.795250260376838e-01 6.300047154617559e+00
9.973034763885236e-02 9.948178824852461e-01 6.400038010913756e+00
0.000000000000000e+00 1.000000000000000e+00 6.500000000000000e+00
1.000000000000000e-01 3.000000000000000e-01 7.500000000000000e+00
1.800000000000128e-01 3.000000000000000e-01 7.541904761904729e+00
2.600000000000176e-01 2.999999999999999e-01 7.583809523809474e+00
3.400000000000162e-01 3.000000000000000e-01 7.625714285714233e+00
4.200000000000100e-01 3.000000000000000e-01 7.667619047619000e+00
4.999999999999999e-01 3.000000000000000e-01 7.709523809523774e+00
5.000000000000000e-01 3.000000000000000e-01 7.709523809523774e+00
5.999999999999959e-01 3.000000000000000e-01 7.761904761904751e+00
6.999999999999911e-01 2.999999999999999e-01 7.814285714285733e+00
7.999999999999886e-01 3.000000000000000e-01 7.866666666666709e+00
8.999999999999907e-01 2.999999999999999e-01 7.919047619047674e+00
1.000000000000000e+00 3.000000000000000e-01 7.971428571428629e+00
1.054545454545370e+00 3.000000000000000e-01 7.999999999999999e+00
1.073636363636294e+00 2.999999999999999e-01 8.010000000000000e+00
1.092727272727220e+00 3.000000000000000e-01 8.020000000000001e+00
1.111818181818146e+00 3.000000000000000e-01 8.030000000000003e+00
1.130909090909073e+00 3.000000000000000e-01 8.040000000000003e+00
1.150000000000000e+00 3.000000000000000e-01 8.050000000000001e+00
9.999999999999996e-01 3.000000000000000e-01 7.971428571428627e+00
1.010909090909073e+00 3.000000000000000e-01 7.977142857142903e+00
1.021818181818147e+00 3.000000000000000e-01 7.982857142857179e+00
1.032727272727221e+00 3.000000000000000e-01 7.988571428571451e+00
1.043636363636295e+00 3.000000000000000e-01 7.994285714285724e+00
1.054545454545370e+00 3.000000000000000e-01 7.999999999999999e+00
1.150000000000000e+00 3.000000000000000e-01 8.050000000000001e+00
1.220000000000010e+00 3.000000000000000e-01 8.086666666666639e+00
1.290000000000014e+00 3.000000000000000e-01 8.123333333333287e+00
1.360000000000013e+00 2.999999999999999e-01 8.159999999999945e+00
1.430000000000008e+00 3.000000000000000e-01 8.196666666666616e+00
1.500000000000000e+00 3.000000000000000e-01 8.233333333333286e+00
1.500000000000000e+00 3.000000000000000e-01 8.233333333333286e+00
1.599999999999998e+00 2.999999999999999e-01 8.285714285714262e+00
1.699999999999995e+00 3.000000000000000e-01 8.338095238095244e+00
1.799999999999992e+00 3.000000000000000e-01 8.390476190476223e+00
1.899999999999993e+00 3.000000000000000e-01 8.442857142857196e+00
2.000000000000000e+00 3.000000000000000e-01 8.495238095238156e+00
[...]
  <PointData>
        <DataArray type="Float64" Name="displacement" NumberOfComponents="3" format="ascii">
1.851283861955879e-01 1.705210196226933e-01 7.242565013554281e-03
1.429736273575434e-01 1.609215165377949e-01 1.118119910137785e-03
1.073674820181799e-01 1.483150062047054e-01 -2.773476828240279e-03
7.764775924813150e-02 1.334912601071072e-01 -4.954271367532903e-03
5.315226811803186e-02 1.172400497286832e-01 -5.946309873692823e-03
3.321881769851520e-02 1.003511465531162e-01 -6.271638512672928e-03
3.321881769851531e-02 1.003511465531164e-01 -6.271638512672817e-03
3.137336790076239e-02 9.858252022659064e-02 -6.288283857582622e-03
2.956969856661951e-02 9.681645217734780e-02 -6.303946027933494e-03
2.780705542581730e-02 9.505384199661293e-02 -6.319219661743924e-03
2.608468420808741e-02 9.329558927561110e-02 -6.334699397031907e-03
2.440183064316070e-02 9.154259360556682e-02 -6.350979871815543e-03
2.440183064316070e-02 9.154259360556682e-02 -6.350979871815543e-03
1.723754159302782e-02 8.367428456652204e-02 -6.451273584872075e-03
1.080173185458178e-02 7.601708595934176e-02 -6.635986440283514e-03
5.023806184159874e-03 6.865519421115140e-02 -6.960773045586399e-03
-1.668306618988202e-04 6.167280574907696e-02 -7.481288008317488e-03
-4.840773927256681e-03 5.515411700024442e-02 -8.253185936012652e-03
-4.840773927256681e-03 5.515411700024442e-02 -8.253185936012652e-03
-9.694793496550336e-03 4.750628817618785e-02 -9.177099317001614e-03
-1.347461149658280e-02 3.991583568952839e-02 -9.736645969216751e-03
-1.625741405474246e-02 3.250049368327934e-02 -9.967300388644240e-03
-1.812038729841814e-02 2.537799630045479e-02 -9.904537071270370e-03
-1.914071735499862e-02 1.866607768406880e-02 -9.583830513080982e-03
-1.914071735499856e-02 1.866607768406880e-02 -9.583830513080982e-03
-1.919372445088074e-02 1.808765032524262e-02 -9.543632781597755e-03
-1.924061897619156e-02 1.751356552500460e-02 -9.501667956321125e-03
-1.928145676734716e-02 1.694390845218963e-02 -9.457961699488204e-03
-1.931629366076310e-02 1.637876427563323e-02 -9.412539673336329e-03
-1.934518549285541e-02 1.581821816417106e-02 -9.365427540102500e-03
-1.934518549285541e-02 1.581821816417095e-02 -9.365427540102500e-03
-1.865468143870208e-02 5.143040335618410e-03 -8.010590712318022e-03
-1.583797975927903e-02 -2.595366313317693e-03 -6.149857735740172e-03
-1.143201155764703e-02 -6.578005864394720e-03 -4.030000419044111e-03
-5.973707936867037e-03 -5.985882399369924e-03 -1.897790570905666e-03
0.000000000000000e+00 0.000000000000000e+00 0.000000000000000e+00
0.000000000000000e+00 0.000000000000000e+00 0.000000000000000e+00
-8.999997296480766e-04 1.113034310294136e-03 -2.332345566209426e-04
-2.113395636693882e-03 4.093189387591234e-03 -6.329870312438146e-05
-3.636213845539416e-03 8.904900814084293e-03 4.540657974456686e-04
-5.464480480587175e-03 1.551260417196637e-02 1.263117182043416e-03
-7.594221666239354e-03 2.388073504343025e-02 2.308113687627955e-03
-7.594221666239465e-03 2.388073504343025e-02 2.308113687627955e-03
-1.067429278398668e-02 3.676231965598320e-02 3.861238053854521e-03
-1.421144723065526e-02 5.226954110215543e-02 5.587059535919092e-03
-1.819792353046834e-02 7.033293762841758e-02 7.376707502873003e-03
-2.262596020764918e-02 9.088304748124004e-02 9.121311323772918e-03
-2.748779578642091e-02 1.138504089070936e-01 1.071200036767284e-02
-3.031977125712326e-02 1.273720608476865e-01 1.147584081518671e-02
-3.134067542770902e-02 1.322675773042591e-01 1.172144430389377e-02
-3.237689877774619e-02 1.372467977734886e-01 1.195454840270793e-02
-3.342838730345843e-02 1.423092389456084e-01 1.217439559779443e-02
-3.449508700106807e-02 1.474544175108516e-01 1.238022837532071e-02
-3.557694386679811e-02 1.526818501594518e-01 1.257128922145112e-02
-2.748779578642102e-02 1.138504089070936e-01 1.071200036767239e-02
-2.804409079165882e-02 1.164992187378558e-01 1.087158855899695e-02
-2.860544591785474e-02 1.191758790275443e-01 1.102790804310017e-02
-2.917185108850151e-02 1.218802995959108e-01 1.118081747629152e-02
-2.974329622709337e-02 1.246123902627075e-01 1.133017551488402e-02
-3.031977125712326e-02 1.273720608476863e-01 1.147584081518671e-02
-3.557694386679811e-02 1.526818501594518e-01 1.257128922145112e-02
-3.951696131892413e-02 1.722541404456050e-01 1.314447617601600e-02
-4.338090933508187e-02 1.923892452991202e-01 1.351481827509016e-02
-4.721822333878167e-02 2.131669001697928e-01 1.367613350577157e-02
-5.107833875353118e-02 2.346668405074183e-01 1.362223985516309e-02
-5.501069100283962e-02 2.569688017617919e-01 1.334695531036534e-02
-5.501069100283917e-02 2.569688017617918e-01 1.334695531036534e-02
-6.085165195534703e-02 2.903780832952345e-01 1.255739036061110e-02
-6.708505023775735e-02 3.258193324857503e-01 1.128536754537190e-02
-7.385501244922055e-02 3.635250142015476e-01 9.512863503424729e-03
-8.130566518888838e-02 4.037275933108345e-01 7.221854873547873e-03
-8.958113505591325e-02 4.466595346818193e-01 4.394318294519195e-03
2.902858802931934e-01 2.996136553067401e-01 9.582896500226923e-03
2.308714223046873e-01 2.756208648737503e-01 3.964801917266669e-03
1.799059261612638e-01 2.510563092748906e-01 -4.004222431808202e-04
1.366938562048402e-01 2.261086466006986e-01 -3.648591012004765e-03
1.005396767773333e-01 2.009665349417116e-01 -5.915519420099713e-03
7.074785222066193e-02 1.758186323884676e-01 -7.337022498361101e-03
7.074785222066193e-02 1.758186323884676e-01 -7.337022498361101e-03
6.797531587708883e-02 1.731995982033776e-01 -7.442215595168555e-03
6.526379393099790e-02 1.705827733987771e-01 -7.539823841703708e-03
6.261249413072234e-02 1.679683728661464e-01 -7.630001938424336e-03
6.002062422459398e-02 1.653566114969646e-01 -7.712904585786440e-03
5.748739196094621e-02 1.627477041827118e-01 -7.788686484248686e-03
5.748739196094665e-02 1.627477041827120e-01 -7.788686484248686e-03
4.670157880604231e-02 1.509443178555265e-01 -8.047440247207049e-03
3.703404969281743e-02 1.392243078531974e-01 -8.177073825029524e-03
2.841065454298175e-02 1.276077867494236e-01 -8.192066267148412e-03
2.075724327824502e-02 1.161148671179046e-01 -8.106896622992465e-03
1.399966582031664e-02 1.047656615323390e-01 -7.936043941992210e-03
1.399966582031664e-02 1.047656615323390e-01 -7.936043941992210e-03
7.033193719133246e-03 9.144982356043352e-02 -7.571385886969040e-03
1.504276248645242e-03 7.901235152673103e-02 -7.013304295703016e-03
-2.719922046199419e-03 6.745927517055139e-02 -6.301024646265141e-03
-5.772236620453342e-03 5.679662423121323e-02 -5.473772416723754e-03
-7.785502929169019e-03 4.703042844803607e-02 -4.570773085148971e-03
-7.785502929169075e-03 4.703042844803584e-02 -4.570773085148083e-03
-7.919934087145419e-03 4.619778180054113e-02 -4.487343242825403e-03
-8.047158656317110e-03 4.537241215561783e-02 -4.403647468062211e-03
-8.167272729803221e-03 4.455432387517677e-02 -4.319714136556740e-03
-8.280372400722491e-03 4.374352132112969e-02 -4.235571624003676e-03
-8.386553762193827e-03 4.294000885538785e-02 -4.151248306101252e-03
-8.386553762193827e-03 4.294000885538785e-02 -4.151248306101252e-03
-9.183122956715639e-03 2.758707463941834e-02 -2.367397819923234e-03
-7.818706758986438e-03 1.557466187300216e-02 -7.874829203782241e-04
-5.217350587776975e-03 6.944715329031736e-03 3.156315666892340e-04
-2.303099861857991e-03 1.739179780400057e-03 6.690808154310446e-04
0.000000000000000e+00 0.000000000000000e+00 0.000000000000000e+00
0.000000000000000e+00 0.000000000000000e+00 0.000000000000000e+00
-1.618587913470165e-03 1.845333906487889e-03 9.006766082286788e-06
-4.066642236356277e-03 7.208695285219224e-03 9.018876368944717e-04
-7.293331448029017e-03 1.588126723448646e-02 2.555356001118447e-03
-1.124782402785868e-02 2.765423285258223e-02 4.846125247429889e-03
-1.587928845521608e-02 4.231877523779909e-02 7.650908764508912e-03
-1.587928845521597e-02 4.231877523779909e-02 7.650908764508912e-03
-2.254317200529010e-02 6.439761354939183e-02 1.169190128219277e-02
-3.008611950241313e-02 9.026041863954692e-02 1.610261160502535e-02
-3.840885063285604e-02 1.194993449971168e-01 2.064224557027394e-02
-4.741208508288886e-02 1.517065471109540e-01 2.507000901520229e-02
-5.699654253878217e-02 1.864741794699109e-01 2.914510777706969e-02
-6.243390150941952e-02 2.063716760865617e-01 3.113313091189784e-02
-6.436787088839657e-02 2.134748547876403e-01 3.177999353366978e-02
-6.631674082928929e-02 2.206455415547904e-01 3.239876442223810e-02
-6.827982054698301e-02 2.278808986289749e-01 3.298776814954252e-02
-7.025641925636572e-02 2.351780882511564e-01 3.354532928753251e-02
-7.224584617232388e-02 2.425342726622975e-01 3.406977240815401e-02
-5.699654253878217e-02 1.864741794699107e-01 2.914510777706969e-02
-5.807305887163383e-02 1.904045616961718e-01 2.955808817074157e-02
-5.915518182797230e-02 1.943600319653652e-01 2.996369329737458e-02
-6.024278251494875e-02 1.983400607830929e-01 3.036161054065367e-02
-6.133573203971432e-02 2.023441186549577e-01 3.075152728426733e-02
-6.243390150941952e-02 2.063716760865617e-01 3.113313091189784e-02
-7.224584617232388e-02 2.425342726622975e-01 3.406977240815401e-02
-7.961672387912033e-02 2.701828531824822e-01 3.572786780329018e-02
-8.711693660985320e-02 2.989737614296399e-01 3.697731853892350e-02
-9.477957211297938e-02 3.289068421789745e-01 3.781145343547365e-02
-1.026377181369578e-01 3.599819402056894e-01 3.822360131335856e-02
-1.107244624302455e-01 3.921989002849880e-01 3.820709099300679e-02
-1.107244624302455e-01 3.921989002849879e-01 3.820709099300679e-02
-1.227390989984720e-01 4.402036023470419e-01 3.742668840687813e-02
-1.353842544031256e-01 4.905378657929297e-01 3.573840901592540e-02
-1.487563943831511e-01 5.432012380722240e-01 3.312280331700279e-02
-1.629519846774909e-01 5.981932666344978e-01 2.956042180695917e-02
-1.780674910250895e-01 6.555134989293236e-01 2.503181498265228e-02
2.950626490506691e-01 3.082268544355559e-01 8.976414970200963e-03
2.349518480222836e-01 2.835495561720391e-01 3.305168096726874e-03
1.833828339199749e-01 2.583506747374926e-01 -1.070574659085111e-03
1.396428064103160e-01 2.328058423338807e-01 -4.297841058514607e-03
1.030189651598798e-01 2.070906911631681e-01 -6.523658862860771e-03
7.279850983523950e-02 1.813808534273191e-01 -7.895055833401443e-03
7.279850983523950e-02 1.813808534273191e-01 -7.895055833399667e-03
6.998287710989015e-02 1.787032467275995e-01 -7.994950907360021e-03
6.722849833089961e-02 1.760278136132064e-01 -8.087298085696304e-03
6.453456158122783e-02 1.733547541384474e-01 -8.172264840755616e-03
6.190025494383533e-02 1.706842683576306e-01 -8.250018644886836e-03
5.932476650168195e-02 1.680165563250646e-01 -8.320726970435288e-03
5.932476650168228e-02 1.680165563250647e-01 -8.320726970433512e-03
4.834883002159895e-02 1.559447631373644e-01 -8.557742172696337e-03
3.849265357870246e-02 1.439529962923473e-01 -8.668647479352032e-03
2.968024653194556e-02 1.320599796920511e-01 -8.669117313253594e-03
2.183561824028046e-02 1.202844372385147e-01 -8.574826097243360e-03
1.488277806266014e-02 1.086450928337755e-01 -8.401448254167221e-03
1.488277806266014e-02 1.086450928337755e-01 -8.401448254167221e-03
7.693296314196685e-03 9.497066426211331e-02 -8.031111347232667e-03
1.976522294419469e-03 8.217754867866867e-02 -7.454547027869296e-03
-2.403080326655593e-03 7.027439032809402e-02 -6.713100088733270e-03
-5.581047879012702e-03 5.926983345504233e-02 -5.848115322498515e-03
-7.692916692636109e-03 4.917252230416569e-02 -4.900937521819415e-03
-7.692916692636109e-03 4.917252230416569e-02 -4.900937521819415e-03
-7.834968180449986e-03 4.831076867129058e-02 -4.813298741716210e-03
-7.969618812947499e-03 4.745640195658352e-02 -4.725360696388847e-03
-8.096966637059277e-03 4.660942841328752e-02 -4.637153294655860e-03
-8.217109699716452e-03 4.576985429464664e-02 -4.548706445319795e-03
-8.330146047849429e-03 4.493768585390379e-02 -4.460050057195630e-03
-8.330146047849596e-03 4.493768585390345e-02 -4.460050057195630e-03
-9.231472093051973e-03 2.900621634009015e-02 -2.580068906299360e-03
-7.906286952241992e-03 1.648658089927491e-02 -9.064658769748490e-04
-5.297424184045829e-03 7.438911629975675e-03 2.731515826237541e-04
-2.347717347089731e-03 1.923340630711312e-03 6.711760243369724e-04
0.000000000000000e+00 0.000000000000000e+00 0.000000000000000e+00
0.000000000000000e+00 0.000000000000000e+00 0.000000000000000e+00
-1.638440781675382e-03 1.901964673516610e-03 1.581172006837051e-05
-4.123936007345785e-03 7.414066556840515e-03 9.202165310444599e-04
-7.403792370146378e-03 1.631577155031250e-02 2.588656795238009e-03
-1.142531656321233e-02 2.838654555427328e-02 4.896574874967641e-03
-1.613581527967872e-02 4.340585446906342e-02 7.719413132546649e-03
-1.613581527967872e-02 4.340585446906342e-02 7.719413132546649e-03
-2.291253413911731e-02 6.599039791345801e-02 1.178231167846455e-02
-3.058052578442261e-02 9.240671196190953e-02 1.621187505728017e-02
-3.903687360062369e-02 1.222240659510206e-01 2.076482663288992e-02
-4.817866097275048e-02 1.550117292173940e-01 2.519788976919024e-02
-5.790297128583222e-02 1.903389710976326e-01 2.926778783007222e-02
-6.341586110434061e-02 2.105247362453465e-01 3.124766063706375e-02
-6.537599285075424e-02 2.177250474038119e-01 3.189068353278479e-02
-6.735084241720601e-02 2.249906584000307e-01 3.250507489421040e-02
-6.933969371746640e-02 2.323185722417617e-01 3.308914202042423e-02
-7.134183066530508e-02 2.397057919367629e-01 3.364119221049933e-02
-7.335653717449397e-02 2.471493204927925e-01 3.415953276351580e-02
-5.790297128583255e-02 1.903389710976326e-01 2.926778783007222e-02
-5.899466828126620e-02 1.943281668824528e-01 2.967946006354438e-02
-6.009193937459079e-02 1.983419004951835e-01 3.008359930021776e-02
-6.119465095204901e-02 2.023796127302754e-01 3.047988970085669e-02
-6.230266939988460e-02 2.064407443821787e-01 3.086801542621664e-02
-6.341586110433983e-02 2.105247362453444e-01 3.124766063706552e-02
-7.335653717449397e-02 2.471493204927925e-01 3.415953276351580e-02
-8.082876515526816e-02 2.751227284372900e-01 3.579094620664947e-02
-8.844861236383306e-02 3.042572459230432e-01 3.700747636832169e-02
-9.624910223852501e-02 3.345518373088093e-01 3.780269450626150e-02
-1.042632582176821e-01 3.660054669533461e-01 3.817017187819616e-02
-1.125241037396418e-01 3.986170992154112e-01 3.810347974184403e-02
-1.125241037396418e-01 3.986170992154112e-01 3.810347974184403e-02
-1.248187116749127e-01 4.472118721885857e-01 3.724230904509085e-02
-1.377804406747185e-01 4.981647828939989e-01 3.546321555630882e-02
-1.515055689849416e-01 5.514728119694279e-01 3.274745658664990e-02
-1.660903748514635e-01 6.071329400526502e-01 2.907628944726603e-02
-1.816311365201659e-01 6.651421477814424e-01 2.443097144931272e-02
3.253432953034485e-02 7.110905088266450e-02 1.731289086565724e-03
2.751948582980246e-02 6.814370006229709e-02 1.189161280381157e-03
2.306114572504958e-02 6.513287830601056e-02 6.684886356804753e-04
1.907160647413009e-02 6.210565432033555e-02 1.402264406316078e-04
1.546316533508729e-02 5.909109681180325e-02 -4.246700166117279e-04
1.214811956596495e-02 5.611827448694395e-02 -1.055245447874498e-03
3.011718450697032e-03 4.767579483905859e-02 -3.658826371863100e-03
2.569201395687948e-03 4.729238043405692e-02 -3.823015372127259e-03
2.125084221274109e-03 4.691255818455453e-02 -3.991321816604554e-03
1.679080145911116e-03 4.653642314309347e-02 -4.163840679362707e-03
1.230902388056010e-03 4.616407036221493e-02 -4.340666934487203e-03
7.802641661642795e-04 4.579559489446128e-02 -4.521895556059974e-03
1.214811956596484e-02 5.611827448694395e-02 -1.055245447874498e-03
1.024794583548871e-02 5.435219383140244e-02 -1.480886854118069e-03
8.403641570455589e-03 5.261846796238012e-02 -1.947633387061387e-03
6.595784059133858e-03 5.092353445633990e-02 -2.461917309279471e-03
4.804950589791690e-03 4.927383088974513e-02 -3.030170883354444e-03
3.011718450697143e-03 4.767579483905870e-02 -3.658826371863100e-03
1.120770498258903e-01 9.054984082180775e-02 1.161122387417635e-02
8.959512296870675e-02 8.800926287005698e-02 8.432166130711849e-03
7.085336091639349e-02 8.464459303900665e-02 6.004821575164243e-03
5.539829026311804e-02 8.060613318991744e-02 4.179012412587113e-03
4.277643760304639e-02 7.604418518404982e-02 2.804560848037596e-03
3.253432953034463e-02 7.110905088266450e-02 1.731289086565724e-03
-1.102614418197215e-02 -4.869515286006765e-03 -4.440030183229027e-03
-9.582286045311694e-03 -7.114844115601038e-03 -3.505208412306615e-03
-7.742089561949661e-03 -7.973053049291412e-03 -2.556871778541137e-03
-5.521207728720737e-03 -7.221646039583973e-03 -1.631943011918935e-03
-2.935293542459326e-03 -4.638127038984696e-03 -7.673448424085905e-04
0.000000000000000e+00 0.000000000000000e+00 0.000000000000000e+00
7.802641661642795e-04 4.579559489446128e-02 -4.521895556059974e-03
-1.509322828899484e-03 4.363456066050519e-02 -5.413479702935931e-03
-3.575703946209763e-03 4.108494174065336e-02 -6.143936928522109e-03
-5.422788066339779e-03 3.820230004977399e-02 -6.722487610449690e-03
-7.054484069861533e-03 3.504219750273496e-02 -7.158352126349854e-03
-8.474700837347915e-03 3.166019601440484e-02 -7.460750853860887e-03
-8.474700837348026e-03 3.166019601440484e-02 -7.460750853859111e-03
-9.590739505769053e-03 2.842337315971422e-02 -7.628191387972549e-03
-1.053648391783313e-02 2.509007297134991e-02 -7.698946785545502e-03
-1.131491540652535e-02 2.170267294497341e-02 -7.680049498821617e-03
-1.192901530483087e-02 1.830355057624700e-02 -7.578531980060532e-03
-1.238176494573456e-02 1.493508336083260e-02 -7.401426681504120e-03
-1.238176494573451e-02 1.493508336083260e-02 -7.401426681504120e-03
-1.276133649936001e-02 1.011266272721545e-02 -7.017143254934410e-03
-1.280599610025501e-02 5.585045776658082e-03 -6.506301824348526e-03
-1.252530784796096e-02 1.488179278225310e-03 -5.891462457217500e-03
-1.192883584201954e-02 -2.041989999017946e-03 -5.195185221015919e-03
-1.102614418197223e-02 -4.869515286006765e-03 -4.440030183229027e-03
-6.339376858547130e-03 2.542720116307712e-02 3.283240750970862e-03
-6.882567669632911e-03 2.845498446970124e-02 3.646203288674599e-03
-7.443308577115282e-03 3.164340339508431e-02 4.016610512326935e-03
-8.021623438188019e-03 3.499101084357337e-02 4.392611976538063e-03
-8.617536110044344e-03 3.849635971951509e-02 4.772357235950153e-03
-9.231070449878476e-03 4.215800292725658e-02 5.153995845184056e-03
-3.280508023780382e-03 9.964969122776002e-03 1.261455415114909e-03
-3.835301319072504e-03 1.250955752189770e-02 1.612241484185262e-03
-4.418535014568903e-03 1.533109778389546e-02 1.993678473592553e-03
-5.030258945895927e-03 1.842656705036244e-02 2.401900962052395e-03
-5.670522948679868e-03 2.179294246289198e-02 2.833043528280399e-03
-6.339376858547352e-03 2.542720116307717e-02 3.283240750974414e-03
0.000000000000000e+00 0.000000000000000e+00 0.000000000000000e+00
-5.271830386500698e-04 6.486502084067092e-04 1.399540313329339e-05
-1.118652809256687e-03 1.979938583407226e-03 1.605222982341559e-04
-1.774581862916402e-03 3.983398766482127e-03 4.261970332848364e-04
-2.495142750725432e-03 6.648564399111490e-03 7.976359562533730e-04
-3.280508023780437e-03 9.964969122776057e-03 1.261455415114909e-03
-1.402620643958952e-02 7.207616457961319e-02 7.725292095198455e-03
-1.445260461104714e-02 7.481605816015130e-02 7.914249013985852e-03
-1.488473975478133e-02 7.760225856253516e-02 8.098709250674574e-03
-1.532261622645859e-02 8.043450158694931e-02 8.278334964892053e-03
-1.576623838174562e-02 8.331252303357861e-02 8.452788316276383e-03
-1.621561057630894e-02 8.623605870260753e-02 8.621731464462101e-03
-9.231070449878698e-03 4.215800292725663e-02 5.153995845184056e-03
-1.012053255102674e-02 4.754940427822929e-02 5.688455257324421e-03
-1.104471154890785e-02 5.324090332403381e-02 6.217906755555447e-03
-1.200367309518613e-02 5.922851785958755e-02 6.737258172719862e-03
-1.299748284152513e-02 6.550826567980811e-02 7.241417341653289e-03
-1.402620643958974e-02 7.207616457961308e-02 7.725292095202008e-03
-1.967506458589940e-02 1.115024940522165e-01 9.701854314403846e-03
-2.073965799308519e-02 1.204499146949113e-01 9.922043371872746e-03