<?xml version="1.0" ?> 
<!-- 
# vtk DataFile Version 3.0
-->
<VTKFile type="UnstructuredGrid" version="0.1" compressor="vtkZLibDataCompressor" byte_order="LittleEndian">
  <UnstructuredGrid>
    <FieldData>
      <DataArray type="Float64" Name="TIME" NumberOfTuples="1" format="ascii">
1.000000010000000e+00 
      </DataArray>
      <DataArray type="Float64" Name="sum_coupling_force_beam" NumberOfTuples="1" NumberOfComponents="3" format="ascii">
7.364639017991645e-02 5.434948156523410e-02 9.394222186711909e-04 
      </DataArray>
      <DataArray type="Float64" Name="sum_coupling_force_solid" NumberOfTuples="1" NumberOfComponents="3" format="ascii">
-7.364639017991643e-02 -5.434948156523414e-02 -9.394222186711890e-04 
      </DataArray>
      <DataArray type="Float64" Name="sum_coupling_moment_beam" NumberOfTuples="1" NumberOfComponents="3" format="ascii">
-2.533059437606806e-02 8.318421957530919e-02 8.572542821604185e-04 
      </DataArray>
      <DataArray type="Float64" Name="sum_coupling_moment_solid" NumberOfTuples="1" NumberOfComponents="3" format="ascii">
5.463867189699914e-01 -7.982534634826969e-01 3.859844043370631e-02 
      </DataArray>
    </FieldData>

    <Piece NumberOfPoints="927" NumberOfCells="0" >
      <Points>
        <DataArray type="Float64" NumberOfComponents="3" format="ascii">
7.000000000000000e-01 0.000000000000000e+00 0.000000000000000e+00
6.062177826489999e-01 3.500000000000000e-01 0.000000000000000e+00
6.062177826489999e-01 3.500000000000000e-01 5.000000000000000e-01
7.000000000000000e-01 0.000000000000000e+00 5.000000000000000e-01
1.000000000000000e+00 0.000000000000000e+00 0.000000000000000e+00
8.660254037839999e-01 5.000000000000000e-01 0.000000000000000e+00
8.660254037839999e-01 5.000000000000000e-01 5.000000000000000e-01
1.000000000000000e+00 0.000000000000000e+00 5.000000000000000e-01
3.500000000000000e-01 6.062177826489999e-01 0.000000000000000e+00
3.500000000000000e-01 6.062177826489999e-01 5.000000000000000e-01
5.000000000000000e-01 8.660254037839999e-01 0.000000000000000e+00
5.000000000000000e-01 8.660254037839999e-01 5.000000000000000e-01
0.000000000000000e+00 7.000000000000000e-01 0.000000000000000e+00
0.000000000000000e+00 7.000000000000000e-01 5.000000000000000e-01
0.000000000000000e+00 1.000000000000000e+00 0.000000000000000e+00
0.000000000000000e+00 1.000000000000000e+00 5.000000000000000e-01
6.062177826489999e-01 3.500000000000000e-01 1.000000000000000e+00
7.000000000000000e-01 0.000000000000000e+00 1.000000000000000e+00
8.660254037839999e-01 5.000000000000000e-01 1.000000000000000e+00
1.000000000000000e+00 0.000000000000000e+00 1.000000000000000e+00
3.500000000000000e-01 6.062177826489999e-01 1.000000000000000e+00
5.000000000000000e-01 8.660254037839999e-01 1.000000000000000e+00
0.000000000000000e+00 7.000000000000000e-01 1.000000000000000e+00
0.000000000000000e+00 1.000000000000000e+00 1.000000000000000e+00
6.062177826489999e-01 3.500000000000000e-01 1.500000000000000e+00
7.000000000000000e-01 0.000000000000000e+00 1.500000000000000e+00
8.660254037839999e-01 5.000000000000000e-01 1.500000000000000e+00
1.000000000000000e+00 0.000000000000000e+00 1.500000000000000e+00
3.500000000000000e-01 6.062177826489999e-01 1.500000000000000e+00
5.000000000000000e-01 8.660254037839999e-01 1.500000000000000e+00
0.000000000000000e+00 7.000000000000000e-01 1.500000000000000e+00
0.000000000000000e+00 1.000000000000000e+00 1.500000000000000e+00
0.000000000000000e+00 0.000000000000000e+00 3.500000000000000e+00
0.000000000000000e+00 0.000000000000000e+00 3.000000000000000e+00
0.000000000000000e+00 3.000000000000000e-01 3.000000000000000e+00
0.000000000000000e+00 3.000000000000000e-01 3.500000000000000e+00
5.000000000000000e-01 0.000000000000000e+00 3.500000000000000e+00
5.000000000000000e-01 0.000000000000000e+00 3.000000000000000e+00
5.000000000000000e-01 3.000000000000000e-01 3.000000000000000e+00
5.000000000000000e-01 3.000000000000000e-01 3.500000000000000e+00
0.000000000000000e+00 0.000000000000000e+00 2.500000000000000e+00
0.000000000000000e+00 3.000000000000000e-01 2.500000000000000e+00
5.000000000000000e-01 0.000000000000000e+00 2.500000000000000e+00
5.000000000000000e-01 3.000000000000000e-01 2.500000000000000e+00
1.000000000000000e+00 0.000000000000000e+00 3.500000000000000e+00
1.000000000000000e+00 0.000000000000000e+00 3.000000000000000e+00
1.000000000000000e+00 3.000000000000000e-01 3.000000000000000e+00
1.000000000000000e+00 3.000000000000000e-01 3.500000000000000e+00
1.000000000000000e+00 0.000000000000000e+00 2.500000000000000e+00
1.000000000000000e+00 3.000000000000000e-01 2.500000000000000e+00
1.500000000000000e+00 0.000000000000000e+00 3.500000000000000e+00
1.500000000000000e+00 0.000000000000000e+00 3.000000000000000e+00
1.500000000000000e+00 3.000000000000000e-01 3.000000000000000e+00
1.500000000000000e+00 3.000000000000000e-01 3.500000000000000e+00
1.500000000000000e+00 0.000000000000000e+00 2.500000000000000e+00
1.500000000000000e+00 3.000000000000000e-01 2.500000000000000e+00
2.000000000000000e+00 0.000000000000000e+00 3.500000000000000e+00
2.000000000000000e+00 0.000000000000000e+00 3.000000000000000e+00
2.000000000000000e+00 3.000000000000000e-01 3.000000000000000e+00
2.000000000000000e+00 3.000000000000000e-01 3.500000000000000e+00
2.000000000000000e+00 0.000000000000000e+00 2.500000000000000e+00
2.000000000000000e+00 3.000000000000000e-01 2.500000000000000e+00
7.000000000000000e-01 0.000000000000000e+00 5.000000000000000e+00
6.062177826489999e-01 3.500000000000000e-01 5.000000000000000e+00
6.062177826489999e-01 3.500000000000000e-01 5.500000000000000e+00
7.000000000000000e-01 0.000000000000000e+00 5.500000000000000e+00
1.000000000000000e+00 0.000000000000000e+00 5.000000000000000e+00
8.660254037839999e-01 5.000000000000000e-01 5.000000000000000e+00
8.660254037839999e-01 5.000000000000000e-01 5.500000000000000e+00
1.000000000000000e+00 0.000000000000000e+00 5.500000000000000e+00
6.761480784020000e-01 1.811733315720000e-01 5.000000000000000e+00
6.062177826489999e-01 3.500000000000000e-01 5.250000000000000e+00
6.761480784020000e-01 1.811733315720000e-01 5.500000000000000e+00
7.000000000000000e-01 0.000000000000000e+00 5.250000000000000e+00
8.500000000000000e-01 0.000000000000000e+00 5.000000000000000e+00
7.361215932170000e-01 4.250000000000000e-01 5.000000000000000e+00
7.361215932170000e-01 4.250000000000000e-01 5.500000000000000e+00
8.500000000000000e-01 0.000000000000000e+00 5.500000000000000e+00
9.659258262890000e-01 2.588190451030000e-01 5.000000000000000e+00
8.660254037839999e-01 5.000000000000000e-01 5.250000000000000e+00
9.659258262890000e-01 2.588190451030000e-01 5.500000000000000e+00
1.000000000000000e+00 0.000000000000000e+00 5.250000000000000e+00
3.500000000000000e-01 6.062177826489999e-01 5.000000000000000e+00
3.500000000000000e-01 6.062177826489999e-01 5.500000000000000e+00
5.000000000000000e-01 8.660254037839999e-01 5.000000000000000e+00
5.000000000000000e-01 8.660254037839999e-01 5.500000000000000e+00
4.949747468310000e-01 4.949747468310000e-01 5.000000000000000e+00
3.500000000000000e-01 6.062177826489999e-01 5.250000000000000e+00
4.949747468310000e-01 4.949747468310000e-01 5.500000000000000e+00
4.250000000000000e-01 7.361215932170000e-01 5.000000000000000e+00
4.250000000000000e-01 7.361215932170000e-01 5.500000000000000e+00
7.071067811870000e-01 7.071067811870000e-01 5.000000000000000e+00
5.000000000000000e-01 8.660254037839999e-01 5.250000000000000e+00
7.071067811870000e-01 7.071067811870000e-01 5.500000000000000e+00
0.000000000000000e+00 7.000000000000000e-01 5.000000000000000e+00
0.000000000000000e+00 7.000000000000000e-01 5.500000000000000e+00
0.000000000000000e+00 1.000000000000000e+00 5.000000000000000e+00
0.000000000000000e+00 1.000000000000000e+00 5.500000000000000e+00
1.811733315720000e-01 6.761480784020000e-01 5.000000000000000e+00
0.000000000000000e+00 7.000000000000000e-01 5.250000000000000e+00
1.811733315720000e-01 6.761480784020000e-01 5.500000000000000e+00
0.000000000000000e+00 8.500000000000000e-01 5.000000000000000e+00
0.000000000000000e+00 8.500000000000000e-01 5.500000000000000e+00
2.588190451030000e-01 9.659258262890000e-01 5.000000000000000e+00
0.000000000000000e+00 1.000000000000000e+00 5.250000000000000e+00
2.588190451030000e-01 9.659258262890000e-01 5.500000000000000e+00
6.062177826489999e-01 3.500000000000000e-01 6.000000000000000e+00
7.000000000000000e-01 0.000000000000000e+00 6.000000000000000e+00
8.660254037839999e-01 5.000000000000000e-01 6.000000000000000e+00
1.000000000000000e+00 0.000000000000000e+00 6.000000000000000e+00
6.062177826489999e-01 3.500000000000000e-01 5.750000000000000e+00
6.761480784020000e-01 1.811733315720000e-01 6.000000000000000e+00
7.000000000000000e-01 0.000000000000000e+00 5.750000000000000e+00
7.361215932170000e-01 4.250000000000000e-01 6.000000000000000e+00
8.500000000000000e-01 0.000000000000000e+00 6.000000000000000e+00
8.660254037839999e-01 5.000000000000000e-01 5.750000000000000e+00
9.659258262890000e-01 2.588190451030000e-01 6.000000000000000e+00
1.000000000000000e+00 0.000000000000000e+00 5.750000000000000e+00
3.500000000000000e-01 6.062177826489999e-01 6.000000000000000e+00
5.000000000000000e-01 8.660254037839999e-01 6.000000000000000e+00
3.500000000000000e-01 6.062177826489999e-01 5.750000000000000e+00
4.949747468310000e-01 4.949747468310000e-01 6.000000000000000e+00
4.250000000000000e-01 7.361215932170000e-01 6.000000000000000e+00
5.000000000000000e-01 8.660254037839999e-01 5.750000000000000e+00
7.071067811870000e-01 7.071067811870000e-01 6.000000000000000e+00
0.000000000000000e+00 7.000000000000000e-01 6.000000000000000e+00
0.000000000000000e+00 1.000000000000000e+00 6.000000000000000e+00
0.000000000000000e+00 7.000000000000000e-01 5.750000000000000e+00
1.811733315720000e-01 6.761480784020000e-01 6.000000000000000e+00
0.000000000000000e+00 8.500000000000000e-01 6.000000000000000e+00
0.000000000000000e+00 1.000000000000000e+00 5.750000000000000e+00
[...]
  <PointData>
        <DataArray type="Float64" Name="displacement" NumberOfComponents="3" format="ascii">
2.341538331442616e-01 1.045226373139808e-01 -2.136748191689862e-02
1.089011856292712e-01 5.963629405599908e-02 -1.115388920200892e-02
8.463600565164438e-02 6.348035665674102e-02 -1.435995618538454e-02
1.702826411278627e-01 9.045450660589954e-02 -2.504827235770770e-02
2.337130038248753e-01 2.003095750351264e-01 4.788467104807074e-03
5.396027830005531e-02 1.181164424168076e-01 -6.420116505241638e-03
4.458726586037676e-02 1.141304517343494e-01 -8.357806611477277e-03
1.568859400332171e-01 1.617208004608117e-01 4.823867700816902e-03
2.896074236402046e-02 1.532876342974555e-02 3.904846822254389e-04
2.787385859515295e-02 2.251574291159532e-02 -9.259092302195843e-03
-1.131973682581738e-02 2.624962566683769e-02 -1.060941225699400e-02
-7.823966481995038e-03 3.728391031292383e-02 -7.634240326187771e-03
0.000000000000000e+00 0.000000000000000e+00 0.000000000000000e+00
0.000000000000000e+00 0.000000000000000e+00 0.000000000000000e+00
0.000000000000000e+00 0.000000000000000e+00 0.000000000000000e+00
0.000000000000000e+00 0.000000000000000e+00 0.000000000000000e+00
6.719461873499084e-02 6.555893495233431e-02 -1.188973616145799e-02
1.246301919505379e-01 8.957267004697921e-02 -1.662524311278400e-02
3.721507921850092e-02 1.118774633205949e-01 -4.964861887443552e-03
1.200997183404983e-01 1.390818267013320e-01 2.100308712288126e-04
2.093514942004042e-02 2.123208934231161e-02 -3.506610726871385e-03
-1.477151627426534e-02 2.884517984075407e-02 -1.026600098666717e-02
0.000000000000000e+00 0.000000000000000e+00 0.000000000000000e+00
0.000000000000000e+00 0.000000000000000e+00 0.000000000000000e+00
5.238324111414042e-02 7.121433898635703e-02 -9.115375261063327e-03
9.758290633878539e-02 8.154541211563034e-02 -1.615911633774667e-02
3.180627438439168e-02 9.622162875531080e-02 -4.095421427793157e-03
9.444321981491299e-02 1.233816394076044e-01 -1.508970131195003e-03
2.821171593941156e-02 4.721874702762104e-02 -9.696258882476703e-04
2.121709652417143e-03 6.928953348385142e-02 -1.277508904069340e-02
0.000000000000000e+00 0.000000000000000e+00 0.000000000000000e+00
0.000000000000000e+00 0.000000000000000e+00 0.000000000000000e+00
0.000000000000000e+00 0.000000000000000e+00 0.000000000000000e+00
0.000000000000000e+00 0.000000000000000e+00 0.000000000000000e+00
0.000000000000000e+00 0.000000000000000e+00 0.000000000000000e+00
0.000000000000000e+00 0.000000000000000e+00 0.000000000000000e+00
1.712993072014659e-02 4.902652635447532e-02 9.700095713371137e-03
1.951944248748657e-02 3.869572518209011e-02 1.552004103373472e-02
-1.518126915499673e-02 3.613321025053225e-02 2.609955661682635e-03
-2.944252440399186e-02 4.623739823918299e-02 7.509994921557699e-03
0.000000000000000e+00 0.000000000000000e+00 0.000000000000000e+00
0.000000000000000e+00 0.000000000000000e+00 0.000000000000000e+00
2.422178132692142e-02 1.179700214081560e-02 2.300689232713594e-02
-1.495632666630924e-03 5.186376104472505e-03 1.926626976250282e-04
2.012701031885756e-02 1.605508637527913e-01 3.134129910732993e-02
2.900116779919078e-02 1.221585581091917e-01 3.594824686214681e-02
-2.860846946985497e-02 1.145573551953196e-01 1.115004742108158e-02
-5.160307848495331e-02 1.507352059017863e-01 9.222309310943814e-03
4.025626141477023e-02 7.854482752948372e-02 4.124893713642219e-02
-8.475594309399214e-03 7.325843056676853e-02 1.281501471117939e-02
1.365971318965925e-02 3.027010315388238e-01 4.892574147356592e-02
2.635597762912124e-02 2.376963951786446e-01 5.473197958899625e-02
-4.402099490175486e-02 2.266596192143255e-01 1.574931153887361e-02
-6.689433192696884e-02 2.882879795275817e-01 1.196120646762077e-02
4.052718484522755e-02 1.729101405384922e-01 5.993042527356787e-02
-2.123483362777214e-02 1.638611611558574e-01 1.870837675633072e-02
-3.353752364530616e-03 4.558145858193741e-01 5.690983702669235e-02
1.431101446379107e-02 3.655681733544450e-01 6.589455225977070e-02
-6.164534096566710e-02 3.516954986491331e-01 1.405352988314332e-02
-8.864680643013678e-02 4.449082106817127e-01 4.801453160923039e-03
3.115588802307449e-02 2.810117250463999e-01 7.133790661071392e-02
-3.390463599051880e-02 2.707287878149022e-01 2.207064620991662e-02
3.248462049928885e-01 1.865960546358601e-01 -4.460714619501337e-02
1.661854628865633e-01 1.197091460535173e-01 -2.059352464699718e-02
1.267704847662257e-01 9.836566047519216e-02 -2.872947625816888e-02
2.448226663037325e-01 1.465777874402330e-01 -4.949879846427099e-02
3.159616222425956e-01 3.012178488920357e-01 7.239564761265995e-03
8.443858796476114e-02 2.100691853837245e-01 1.915221899636667e-03
6.614322588318565e-02 1.699045305085494e-01 -1.011551598691280e-02
2.275664812006245e-01 2.473907392414582e-01 -7.177769502521312e-03
2.447115424865267e-01 1.625909156691109e-01 -3.196780880788273e-02
1.485738801368258e-01 1.068112295773113e-01 -2.683426745951626e-02
1.835122298001749e-01 1.285205717628304e-01 -4.052453954328287e-02
2.876032211748263e-01 1.636028906193762e-01 -4.813853526532728e-02
3.166610634946343e-01 2.470892417388185e-01 -1.894122662120506e-02
1.252715542047417e-01 1.642137727933710e-01 -9.423394059973535e-03
9.541480401723725e-02 1.343037924256312e-01 -1.773755645838658e-02
2.367919167133043e-01 1.963701069027650e-01 -2.933232998837005e-02
2.003858343932439e-01 2.683857381773224e-01 6.094336253000146e-03
7.667672636079501e-02 1.896152101377283e-01 -5.695604741235122e-03
1.404308981562930e-01 2.195946150536326e-01 -3.057062135147811e-03
2.669688301709373e-01 2.759134388415058e-01 -2.677020008722140e-03
4.760399481219277e-02 2.960457536365286e-02 -1.045111321147315e-03
4.321758732540756e-02 3.145648836139749e-02 -1.041707243546839e-02
-1.366751867974133e-02 5.601184332812105e-02 -9.226131797691278e-03
-9.897807245543927e-03 5.472454062019097e-02 -6.195544079353024e-03
9.710999053637916e-02 7.170201587145983e-02 -8.890447450540505e-03
4.843112464900575e-02 3.220560581048759e-02 -7.857204032902229e-03
7.974183869406745e-02 6.430775033418773e-02 -1.918408593106356e-02
1.605557369346292e-02 4.007490548517063e-02 -5.623503881447976e-03
1.610497975158185e-02 4.029311466659921e-02 -8.133388304238242e-03
1.369349683353760e-02 1.297460637314835e-01 -5.045211968234385e-03
-1.140679447909959e-02 5.746098633532443e-02 -5.959737906604074e-03
1.534127084568069e-02 1.127159847413744e-01 -8.811273315479956e-03
0.000000000000000e+00 0.000000000000000e+00 0.000000000000000e+00
0.000000000000000e+00 0.000000000000000e+00 0.000000000000000e+00
0.000000000000000e+00 0.000000000000000e+00 0.000000000000000e+00
0.000000000000000e+00 0.000000000000000e+00 0.000000000000000e+00
1.741543246943890e-02 5.910563776199126e-03 3.030588499229109e-03
0.000000000000000e+00 0.000000000000000e+00 0.000000000000000e+00
1.771521414308322e-02 9.250726818488103e-03 -4.900807739114591e-03
0.000000000000000e+00 0.000000000000000e+00 0.000000000000000e+00
0.000000000000000e+00 0.000000000000000e+00 0.000000000000000e+00
-1.198714577935390e-02 1.107828324357595e-02 -6.587774942070496e-03
0.000000000000000e+00 0.000000000000000e+00 0.000000000000000e+00
-1.054396094010671e-02 1.394093421254268e-02 -3.847747882825181e-03
9.176034380105311e-02 7.673751742050051e-02 -2.950780639575076e-02
1.802566203945588e-01 1.098112012482476e-01 -5.156950802423437e-02
4.870093526516078e-02 1.332720065136511e-01 -4.784946023357830e-03
1.709109150020288e-01 1.861125669586206e-01 -2.217472552319905e-02
1.084038886608127e-01 8.909350918528661e-02 -2.915147951873409e-02
1.340081145943972e-01 9.792864419471971e-02 -3.962156658814697e-02
2.082083590691779e-01 1.292238293030563e-01 -5.077732862216193e-02
6.994329728838335e-02 1.047561177314376e-01 -1.750258389980360e-02
1.752141975525892e-01 1.476254332636665e-01 -3.701323218156220e-02
5.815209157355881e-02 1.542420791742673e-01 -6.927340401419859e-03
1.042933015164196e-01 1.676968444718953e-01 -8.875465493126627e-03
1.955156829522913e-01 2.150551748973158e-01 -1.487989222635509e-02
3.222638146951703e-02 2.678739117862478e-02 -1.345047747868276e-02
-8.974768410505667e-03 4.551280117893620e-02 -4.449493753420991e-03
3.796560854515448e-02 3.052877317365339e-02 -1.194918623188488e-02
5.805724254702185e-02 5.208604953664316e-02 -2.100209112539627e-02
1.142518921733001e-02 3.452634568678698e-02 -8.766745152276337e-03
-8.127194952873770e-03 5.212805004318215e-02 -6.399074422393732e-03
1.083868128044906e-02 8.990122210219945e-02 -4.734337705746829e-03
0.000000000000000e+00 0.000000000000000e+00 0.000000000000000e+00
0.000000000000000e+00 0.000000000000000e+00 0.000000000000000e+00
0.000000000000000e+00 0.000000000000000e+00 0.000000000000000e+00
1.356171555702418e-02 8.547700866323470e-03 -6.295234571705065e-03
0.000000000000000e+00 0.000000000000000e+00 0.000000000000000e+00
0.000000000000000e+00 0.000000000000000e+00 0.000000000000000e+00
-9.826838428446220e-03 1.278692553570665e-02 -2.475351567031225e-03
6.555814820865025e-02 4.250098535409300e-02 -3.230092884693186e-02
1.399027161932198e-01 6.878754159187003e-02 -5.344372323631349e-02
3.099041833556480e-02 9.151838671336004e-02 -5.463087200076190e-03
1.323867172016379e-01 1.350716226741601e-01 -2.832203453626220e-02
7.793903318239974e-02 6.137100137112064e-02 -3.042673215128081e-02
1.003541447858416e-01 5.930564259433036e-02 -4.163159281171415e-02
1.584148157931207e-01 8.957905898574424e-02 -5.214888799624494e-02
4.791030676908779e-02 6.680924743677474e-02 -1.854999089220638e-02
1.362098184407496e-01 1.018221190844390e-01 -4.099203781788427e-02
4.097707502526615e-02 1.117975411311891e-01 -5.217033522765871e-03
7.627462519162476e-02 1.196814278299941e-01 -1.347709877181713e-02
1.504266830201607e-01 1.588462911089378e-01 -2.621177479988022e-02
2.067145086065149e-02 8.584312174439826e-03 -1.694087132753069e-02
-7.270681169118539e-03 2.247070510273123e-02 -1.702023788204466e-04
2.506934959244202e-02 2.057228718415571e-02 -1.447318892279825e-02
3.939470574577287e-02 2.428013494342132e-02 -2.516027761560542e-02
6.337842213500046e-03 1.431970992379585e-02 -8.464135857734765e-03
-7.645041262478513e-03 3.647124741652329e-02 -2.148785182739879e-03
2.765635715626458e-03 5.538249030745301e-02 -1.713194586018874e-03
0.000000000000000e+00 0.000000000000000e+00 0.000000000000000e+00
0.000000000000000e+00 0.000000000000000e+00 0.000000000000000e+00
0.000000000000000e+00 0.000000000000000e+00 0.000000000000000e+00
8.681870910274723e-03 1.418642126280051e-03 -9.483594401896216e-03
0.000000000000000e+00 0.000000000000000e+00 0.000000000000000e+00
0.000000000000000e+00 0.000000000000000e+00 0.000000000000000e+00
-4.443806974067746e-03 6.230822845438315e-03 1.745593631582695e-03
0.000000000000000e+00 0.000000000000000e+00 0.000000000000000e+00
0.000000000000000e+00 0.000000000000000e+00 0.000000000000000e+00
0.000000000000000e+00 0.000000000000000e+00 0.000000000000000e+00
0.000000000000000e+00 0.000000000000000e+00 0.000000000000000e+00
1.954179306023262e-02 6.407122986499679e-02 1.127021519576591e-02
2.970394677451730e-02 6.097487660249656e-02 1.894706391499039e-02
-2.823320325154955e-02 5.420001898682495e-02 9.307748725616133e-03
-4.614784533760034e-02 5.699602136004055e-02 1.461385296361327e-02
0.000000000000000e+00 0.000000000000000e+00 0.000000000000000e+00
0.000000000000000e+00 0.000000000000000e+00 0.000000000000000e+00
0.000000000000000e+00 0.000000000000000e+00 0.000000000000000e+00
0.000000000000000e+00 0.000000000000000e+00 0.000000000000000e+00
1.171875907258889e-02 1.564404233675244e-02 1.067280883379152e-03
1.654396606988155e-02 1.938529186608960e-02 7.018771402900759e-03
-1.415359850347560e-02 1.667200552361393e-02 2.412849225403422e-03
-2.277471968832708e-02 1.490678875093993e-02 9.412694553020117e-03
2.600251448134991e-02 6.587406558625086e-02 1.504553464196647e-02
8.251601111442112e-04 5.579203966287206e-02 1.458289550791926e-02
-3.763286626706348e-02 5.879137377047122e-02 1.081914331170023e-02
-1.316119796289520e-02 5.863498540775493e-02 1.298626472405636e-02
0.000000000000000e+00 0.000000000000000e+00 0.000000000000000e+00
0.000000000000000e+00 0.000000000000000e+00 0.000000000000000e+00
4.310490516111640e-02 3.950496682290398e-02 2.899066215201673e-02
-5.984888707656965e-03 3.113660405497365e-02 7.256018910550537e-03
0.000000000000000e+00 0.000000000000000e+00 0.000000000000000e+00
0.000000000000000e+00 0.000000000000000e+00 0.000000000000000e+00
0.000000000000000e+00 0.000000000000000e+00 0.000000000000000e+00
2.212784712949932e-02 9.649228217266300e-03 1.491823646806307e-02
-1.838048082710294e-03 3.739673485869876e-03 5.091348994601076e-04
3.324575457393723e-02 5.267554600814272e-02 2.269895085421887e-02
1.866352532659227e-02 3.394367480076173e-02 1.840903439285925e-02
-1.701802370321704e-02 4.502481985940539e-02 8.179675067219002e-03
1.723262706474211e-02 2.274217023364897e-01 3.904332449272343e-02
3.666909954124331e-02 2.035605316021367e-01 4.843105244264042e-02
-5.797645285490170e-02 1.881197918728591e-01 2.951269846830563e-02
-8.966544721104679e-02 2.088401682904094e-01 2.595582216705243e-02
2.134834602707506e-02 1.371219123645065e-01 2.488017128741201e-02
3.665340846650306e-02 1.238603477274873e-01 3.367490499541857e-02
-4.231205767139223e-02 1.121206712616116e-01 1.871245175536371e-02
-6.849823325104934e-02 1.243054031496994e-01 2.049621099234333e-02
2.876461948395615e-02 2.179060984607303e-01 4.391832667063569e-02
-1.129868984554505e-02 1.952005234026369e-01 3.827874929247675e-02
-7.498103863504166e-02 2.000171186577024e-01 2.747356897087186e-02
-3.553426183973422e-02 2.176389408923009e-01 3.291789242639077e-02
5.888175550666351e-02 1.648005688358657e-01 5.786681120511472e-02
-3.206660346998121e-02 1.499977872073879e-01 2.738981586954694e-02
5.567622898496728e-02 9.299329813875554e-02 4.387515837986396e-02
-1.639312349234476e-02 8.188171500257770e-02 1.723017370341527e-02
4.581022389194908e-02 1.856759233137996e-01 5.336253182302710e-02
1.408332701802257e-02 1.568985601179493e-01 4.270849949614330e-02
-4.668324183245980e-02 1.702667166574930e-01 2.811018620506138e-02
-1.702528071856849e-03 4.424226152989065e-01 6.392480329542963e-02
1.919713539210237e-02 3.927637195307922e-01 7.170798573363983e-02
-9.842484374746147e-02 3.699046513763644e-01 3.978802535403964e-02
-1.298293416791409e-01 4.150317816246142e-01 3.438049703454116e-02
9.766583410389419e-03 3.301542596075292e-01 5.271011751841342e-02
3.016719613625193e-02 2.943035254400940e-01 6.129896200373471e-02
-7.663073123250644e-02 2.754272157280674e-01 3.682941736346161e-02
-1.096908837179257e-01 3.071632502882061e-01 3.149655730730468e-02
9.072201787460474e-03 4.178804298865091e-01 6.830826267037104e-02
-3.997268955351291e-02 3.807432455663125e-01 5.534338244668024e-02
-1.115118751253446e-01 3.934771549694035e-01 3.859029584164664e-02
-6.671893094101132e-02 4.282657126242435e-01 4.862822319281304e-02
4.267822876744627e-02 3.398338891715324e-01 7.883244445260894e-02
-6.903595528888347e-02 3.195668621620156e-01 4.251425618524486e-02
5.352862764421442e-02 2.485701921606238e-01 6.971654952286507e-02
-5.023933143018729e-02 2.303540941367351e-01 3.567993681602901e-02
2.948997726863199e-02 3.668241270220159e-01 7.512506007251804e-02
-1.278445985325984e-02 3.295722551116687e-01 6.088067930672682e-02
-8.454721845657173e-02 3.456201709499601e-01 4.053019654810763e-02
-4.195861529106147e-02 6.759353967638464e-01 7.636663179341034e-02
-1.609954071991972e-02 5.994661581203761e-01 8.435715393973817e-02
-1.384069426314593e-01 5.748282629751950e-01 4.271106037712270e-02
-1.781376055916837e-01 6.568318006989261e-01 2.527647092956862e-02
-2.024757864567449e-02 5.602444970244983e-01 7.196621121269367e-02
2.876508733730257e-03 4.956473105893381e-01 7.967463768352930e-02
-1.198294046766849e-01 4.715814058706593e-01 4.038879911946477e-02
-1.517753644096130e-01 5.348586127645504e-01 3.046218269534227e-02
-2.798102569035651e-02 6.374159592647486e-01 8.113819669518597e-02
-7.715857980482203e-02 5.873581334979063e-01 6.363184160692198e-02
-1.585399092821802e-01 6.116652963107018e-01 3.524280750732416e-02
-1.092295796715450e-01 6.652391643670054e-01 5.217767793347922e-02
1.160412532331613e-02 5.352746510022756e-01 9.180996591724874e-02
-1.069625761732793e-01 5.130006725386284e-01 5.176987981130909e-02
2.802335490748901e-02 4.364594787480833e-01 8.612676216617127e-02
-8.787194326997760e-02 4.146445158359010e-01 4.765784253784369e-02
-2.949989062222935e-03 5.661014589899377e-01 8.793421200168981e-02
-4.770844512647085e-02 5.239576475652594e-01 7.170654225483129e-02
-1.215680206703236e-01 5.429987365564816e-01 4.810684316254326e-02
3.307703318155780e-01 1.933246081884947e-01 -4.427771461488440e-02
1.677869468454735e-01 1.256067607231678e-01 -2.009280640648646e-02
1.292996499883290e-01 1.024597153631240e-01 -2.989026845707035e-02
2.501070955866490e-01 1.520763060151388e-01 -5.133928674470747e-02
3.226180025744774e-01 3.101746588098956e-01 5.762993607131037e-03
8.494992282869343e-02 2.177683994225983e-01 2.983194924958592e-03
6.802519965861081e-02 1.755783032595338e-01 -1.116286938004511e-02
2.329448263153389e-01 2.544087673201553e-01 -8.642626550704862e-03
2.493567575092519e-01 1.688041717955682e-01 -3.256635819267756e-02
1.517401633210345e-01 1.116855599997725e-01 -2.693540384202677e-02
1.873789873711411e-01 1.339472405843966e-01 -4.102385227880625e-02
2.914482185025428e-01 1.710228399184478e-01 -4.810083895477202e-02
3.213303998776446e-01 2.546035552305094e-01 -2.005952797082376e-02
1.279974489648683e-01 1.699371307980455e-01 -9.490826367284062e-03
9.788049936698742e-02 1.391204692656612e-01 -1.774980836988778e-02
2.408828738629367e-01 2.030670280108786e-01 -2.989896305038997e-02
2.021379223169130e-01 2.769533881905651e-01 6.776710285372432e-03
7.765329239967088e-02 1.965581999402346e-01 -4.790070981365168e-03
1.425610891512178e-01 2.272615005604944e-01 -1.912174471791511e-03
2.692604407981034e-01 2.847889253176553e-01 -1.070267042169983e-03
1.950968383558678e-01 2.012650290409735e-01 -1.927071350552804e-02
2.206328856748603e-01 1.483090273449783e-01 -3.877719256346255e-02
1.727549154534670e-01 2.512669654580209e-01 -1.778033141540382e-03
2.808270423965349e-01 2.278408336779877e-01 -2.669713149278705e-02
1.144521085235602e-01 1.535717490573852e-01 -1.538467868444375e-02
2.236717126837194e-01 2.238466266684996e-01 -1.278401281796571e-02
1.651986667771747e-01 1.798562426137719e-01 -2.201906759954560e-02
4.971167242881559e-02 3.154269337108988e-02 -1.374394955725625e-03
4.451107611075955e-02 3.250829373732898e-02 -1.086576082817186e-02
-1.488744713791573e-02 5.934737736798235e-02 -8.471911211472331e-03
-1.086706129482812e-02 5.733284387415499e-02 -5.806784231491788e-03
9.937441951502597e-02 7.624279158748834e-02 -9.101093610694451e-03
4.966820077810078e-02 3.329626673678248e-02 -7.867990762013119e-03
8.124914956648413e-02 6.725496524644481e-02 -1.927516083202718e-02
1.694768212807678e-02 4.369949386925000e-02 -5.738303034955572e-03
1.654735465142869e-02 4.330934339103553e-02 -8.269346333336772e-03
1.573487976312615e-02 1.344278959560852e-01 -5.075337359968546e-03
-1.206306519990710e-02 5.984088850203503e-02 -6.729061300399536e-03
1.519304604573286e-02 1.161779530034199e-01 -8.380518986298035e-03
5.339435002630335e-02 9.741886149443567e-02 -1.104381638773560e-02
9.348838984227049e-02 7.118764195464822e-02 -1.626079888514760e-02
1.516327517229547e-02 1.267305711597363e-01 -5.632692663965776e-03
1.826023405257376e-02 4.474862036400804e-02 -7.031910321072430e-03
5.644771851642066e-02 1.039792526361380e-01 -7.140942751931325e-03
4.741557940507182e-02 9.054036166980318e-02 -1.309402370114749e-02
0.000000000000000e+00 0.000000000000000e+00 0.000000000000000e+00
0.000000000000000e+00 0.000000000000000e+00 0.000000000000000e+00
0.000000000000000e+00 0.000000000000000e+00 0.000000000000000e+00
0.000000000000000e+00 0.000000000000000e+00 0.000000000000000e+00
1.882316899973767e-02 6.630695500872833e-03 3.629936279818187e-03
0.000000000000000e+00 0.000000000000000e+00 0.000000000000000e+00