<?xml version="1.0" ?> 
<!-- 
# vtk DataFile Version 3.0
-->
<VTKFile type="UnstructuredGrid" version="0.1" compressor="vtkZLibDataCompressor" byte_order="LittleEndian">
  <UnstructuredGrid>
    <FieldData>
      <DataArray type="Float64" Name="TIME" NumberOfTuples="1" format="ascii">
3.000000000000000e+00 
      </DataArray>
    </FieldData>

    <Piece NumberOfPoints="432" NumberOfCells="0" >
      <Points>
        <DataArray type="Float64" NumberOfComponents="3" format="ascii">
9.961533271249772e-01 8.592418384678263e-02 1.528337982331200e-02
9.887948166351245e-01 1.468155374270068e-01 7.667799810771526e-02
9.699057734523876e-01 2.404816442810291e-01 1.723323091259246e-01
9.380670753119250e-01 3.436214899201149e-01 2.803645491270424e-01
9.009383449562893e-01 4.317257829641916e-01 3.760283814780545e-01
8.728438351829588e-01 4.862941241986100e-01 4.374338241997576e-01
8.645497179207690e-01 5.009905353633890e-01 4.543169038318230e-01
8.613358063736756e-01 5.065360022142251e-01 4.607295218781859e-01
8.562595335071101e-01 5.151341387639032e-01 4.707195401452113e-01
8.504256031905375e-01 5.247830668030913e-01 4.820013477889918e-01
8.451705116306317e-01 5.332719929190378e-01 4.919911981986658e-01
8.417533079841827e-01 5.386933026253933e-01 4.984036254144578e-01
8.369844012625144e-01 5.461338450598406e-01 5.072470518605612e-01
8.208293326319031e-01 5.703233495071933e-01 5.363568825278568e-01
7.942826731317092e-01 6.070389578825850e-01 5.817045503305586e-01
7.623226018629761e-01 6.469891358987735e-01 6.329131400689270e-01
7.323077742787821e-01 6.809298918793747e-01 6.782544153420192e-01
7.122098786565071e-01 7.019647732937389e-01 7.073569785881059e-01
7.008269703339650e-01 7.133286624821787e-01 7.234425934339291e-01
6.750380656917666e-01 7.377237166736984e-01 7.589561375426007e-01
6.331395642194958e-01 7.737907594582356e-01 8.142863031150043e-01
5.834721328776936e-01 8.116130623034302e-01 8.767770828577718e-01
5.375825449257529e-01 8.424573708019101e-01 9.321159789766326e-01
5.072563274668254e-01 8.609148991254212e-01 9.676394485080029e-01
4.989181105624472e-01 8.657388507079918e-01 9.772772463162399e-01
4.961485477197376e-01 8.673179129656859e-01 9.804668126475878e-01
4.918240125484837e-01 8.697606269083593e-01 9.854357811279071e-01
4.869258747753885e-01 8.724938773765353e-01 9.910473410530819e-01
4.825760223300797e-01 8.748916482902315e-01 9.960163415429137e-01
4.797776772515959e-01 8.764196165457182e-01 9.992059442646466e-01
4.641820757027362e-01 8.847293964097783e-01 1.016883977387486e+00
4.030747554866604e-01 9.140811066112818e-01 1.084705534588477e+00
3.043774023420248e-01 9.515951681557092e-01 1.190363718097799e+00
1.889884020168897e-01 9.814371024916003e-01 1.309679306070888e+00
8.453087395143127e-02 9.962767781174711e-01 1.415320141478604e+00
1.687503226683158e-02 9.998508504843151e-01 1.483121976289675e+00
1.135060971593723e-01 2.999999999999999e-01 2.507074622321568e+00
1.677581227067583e-01 2.999999999999999e-01 2.535492349989220e+00
2.522761627833781e-01 3.000000000000000e-01 2.579763704315047e+00
3.477238372166552e-01 2.999999999999999e-01 2.629760105208663e+00
4.322418772932615e-01 3.000000000000000e-01 2.674031459534515e+00
4.864939028406323e-01 3.000000000000000e-01 2.702449187202197e+00
5.168826214492115e-01 3.000000000000000e-01 2.718367087425746e+00
5.846976533834305e-01 3.000000000000000e-01 2.753889247010356e+00
6.903452034791921e-01 2.999999999999999e-01 2.809228439917691e+00
8.096547965207874e-01 2.999999999999999e-01 2.871723941034747e+00
9.153023466165575e-01 3.000000000000000e-01 2.927063133942068e+00
9.831173785507854e-01 3.000000000000000e-01 2.962585293526660e+00
1.057768500458407e+00 3.000000000000000e-01 3.001688262144921e+00
1.070715006554950e+00 2.999999999999999e-01 3.008469765338345e+00
1.090884084300523e+00 3.000000000000000e-01 3.019034520347923e+00
1.113661370244847e+00 3.000000000000000e-01 3.030965479652083e+00
1.133830447990420e+00 3.000000000000000e-01 3.041530234661658e+00
1.146776954086965e+00 2.999999999999999e-01 3.048311737855079e+00
1.001841740521729e+00 3.000000000000000e-01 2.972393292654295e+00
1.009239744005451e+00 3.000000000000000e-01 2.976268437336243e+00
1.020764931288608e+00 3.000000000000000e-01 2.982305440198846e+00
1.033780523256763e+00 2.999999999999999e-01 2.989123131229781e+00
1.045305710539920e+00 3.000000000000000e-01 2.995160134092385e+00
1.052703714023642e+00 3.000000000000000e-01 2.999035278774333e+00
1.161817835014451e+00 3.000000000000000e-01 3.056190294531372e+00
1.209288357368413e+00 3.000000000000000e-01 3.081055806240567e+00
1.283241642435455e+00 3.000000000000000e-01 3.119793241275662e+00
1.366758357564573e+00 3.000000000000000e-01 3.163540092057572e+00
1.440711642631604e+00 3.000000000000000e-01 3.202277527092688e+00
1.488182164985553e+00 3.000000000000000e-01 3.227143038801907e+00
1.516882621449212e+00 3.000000000000000e-01 3.242176611235258e+00
1.584697653383433e+00 3.000000000000000e-01 3.277698770819866e+00
1.690345203479196e+00 3.000000000000000e-01 3.333037963727203e+00
1.809654796520792e+00 3.000000000000000e-01 3.395533464844262e+00
1.915302346616560e+00 3.000000000000000e-01 3.450872657751589e+00
1.983117378550786e+00 3.000000000000000e-01 3.486394817336187e+00
9.961533271253296e-01 8.592418384217376e-02 5.015283379823330e+00
9.887948166356073e-01 1.468155374228856e-01 5.076677998107750e+00
9.699057734529003e-01 2.404816442778350e-01 5.172332309125818e+00
9.380670753122621e-01 3.436214899181053e-01 5.280364549126623e+00
9.009383449563296e-01 4.317257829632458e-01 5.376028381477314e+00
8.728438351827587e-01 4.862941241983075e-01 5.437433824198830e+00
8.645497179204790e-01 5.009905353632850e-01 5.454316903830886e+00
8.613358063732846e-01 5.065360022143093e-01 5.460729521877379e+00
8.562595335065577e-01 5.151341387642768e-01 5.470719540144607e+00
8.504256031897974e-01 5.247830668037863e-01 5.482001347788620e+00
8.451705116297210e-01 5.332719929200129e-01 5.491991198198501e+00
8.417533079831601e-01 5.386933026265457e-01 5.498403625414426e+00
8.369844012614825e-01 5.461338450610063e-01 5.507247051860443e+00
8.208293326309561e-01 5.703233495082327e-01 5.536356882527267e+00
7.942826731309313e-01 6.070389578834086e-01 5.581704550329273e+00
7.623226018624463e-01 6.469891358993184e-01 5.632913140066917e+00
7.323077742785252e-01 6.809298918796344e-01 5.678254415339432e+00
7.122098786564531e-01 7.019647732937931e-01 5.707356978585183e+00
7.008269703339560e-01 7.133286624821875e-01 5.723442593430942e+00
6.750380656917322e-01 7.377237166737389e-01 5.758956137539680e+00
6.331395642194487e-01 7.737907594583108e-01 5.814286303112216e+00
5.834721328776663e-01 8.116130623035268e-01 5.876777082855174e+00
5.375825449257670e-01 8.424573708020124e-01 5.932115978974230e+00
5.072563274668751e-01 8.609148991255217e-01 5.967639448505737e+00
4.989181105624448e-01 8.657388507081271e-01 5.977277246314084e+00
4.961485477194867e-01 8.673179129659634e-01 5.980466812645735e+00
4.918240125478441e-01 8.697606269088557e-01 5.985435781126525e+00
4.869258747743074e-01 8.724938773772738e-01 5.991047341052233e+00
4.825760223286057e-01 8.748916482911806e-01 5.996016341542536e+00
4.797776772498685e-01 8.764196165468005e-01 5.999205944264572e+00
4.641820757010026e-01 8.847293964108310e-01 6.016883977387496e+00
4.030747554851750e-01 9.140811066120947e-01 6.084705534588534e+00
3.043774023409638e-01 9.515951681561915e-01 6.190363718097931e+00
1.889884020163067e-01 9.814371024917954e-01 6.309679306071064e+00
8.453087395121368e-02 9.962767781175123e-01 6.415320141478731e+00
1.687503226679496e-02 9.998508504843168e-01 6.483121976289708e+00
1.135060971593723e-01 2.999999999999999e-01 7.507074622321567e+00
1.677581227067584e-01 2.999999999999999e-01 7.535492349989219e+00
2.522761627833782e-01 3.000000000000000e-01 7.579763704315047e+00
3.477238372166552e-01 3.000000000000000e-01 7.629760105208663e+00
4.322418772932615e-01 3.000000000000000e-01 7.674031459534515e+00
4.864939028406323e-01 3.000000000000000e-01 7.702449187202197e+00
5.168826214492115e-01 3.000000000000000e-01 7.718367087425746e+00
5.846976533834306e-01 3.000000000000000e-01 7.753889247010356e+00
6.903452034791924e-01 3.000000000000000e-01 7.809228439917693e+00
8.096547965207879e-01 3.000000000000000e-01 7.871723941034748e+00
9.153023466165575e-01 3.000000000000000e-01 7.927063133942069e+00
9.831173785507861e-01 3.000000000000000e-01 7.962585293526661e+00
1.057768500458404e+00 3.000000000000000e-01 8.001688262144921e+00
1.070715006554948e+00 3.000000000000000e-01 8.008469765338344e+00
1.090884084300521e+00 3.000000000000000e-01 8.019034520347923e+00
1.113661370244846e+00 3.000000000000000e-01 8.030965479652084e+00
1.133830447990420e+00 3.000000000000000e-01 8.041530234661657e+00
1.146776954086965e+00 3.000000000000000e-01 8.048311737855082e+00
1.001841740521729e+00 2.999999999999999e-01 7.972393292654295e+00
1.009239744005451e+00 3.000000000000000e-01 7.976268437336243e+00
1.020764931288607e+00 3.000000000000000e-01 7.982305440198846e+00
1.033780523256761e+00 3.000000000000000e-01 7.989123131229781e+00
1.045305710539918e+00 2.999999999999999e-01 7.995160134092385e+00
1.052703714023640e+00 3.000000000000000e-01 7.999035278774334e+00
1.161817835014451e+00 3.000000000000000e-01 8.056190294531373e+00
1.209288357368413e+00 3.000000000000000e-01 8.081055806240567e+00
1.283241642435455e+00 3.000000000000000e-01 8.119793241275664e+00
1.366758357564573e+00 3.000000000000000e-01 8.163540092057572e+00
1.440711642631603e+00 3.000000000000000e-01 8.202277527092688e+00
1.488182164985553e+00 3.000000000000000e-01 8.227143038801907e+00
1.516882621449212e+00 3.000000000000000e-01 8.242176611235257e+00
1.584697653383433e+00 3.000000000000000e-01 8.277698770819866e+00
1.690345203479196e+00 2.999999999999999e-01 8.333037963727202e+00
1.809654796520792e+00 3.000000000000000e-01 8.395533464844263e+00
1.915302346616560e+00 3.000000000000000e-01 8.450872657751589e+00
1.983117378550787e+00 3.000000000000000e-01 8.486394817336187e+00
[...]
  <PointData>
        <DataArray type="Float64" Name="displacement" NumberOfComponents="3" format="ascii">
2.593182035391923e-01 2.527838557239230e-01 2.595064059886012e-02
2.166435485641246e-01 2.387717698783059e-01 1.782007745101795e-02
1.599600364879666e-01 2.152907549950705e-01 8.553069275698849e-03
1.087110944562276e-01 1.871598195083568e-01 2.076946529402990e-03
7.304809612926055e-02 1.616272865411433e-01 -1.114470162538628e-03
5.427085528798403e-02 1.452829086383126e-01 -2.337926875287555e-03
4.960947398507110e-02 1.408269428714830e-01 -2.600233860711509e-03
4.789218367198322e-02 1.391404759074552e-01 -2.693638425525169e-03
4.527376456275689e-02 1.365205382225726e-01 -2.833245974622478e-03
4.239828109353905e-02 1.335735125806090e-01 -2.983385287951112e-03
3.992246577683090e-02 1.309752397534332e-01 -3.110798550195470e-03
3.836729623431590e-02 1.293134027334186e-01 -3.190339898987371e-03
3.626529076034379e-02 1.270296905833661e-01 -3.297734670788421e-03
2.968281861120670e-02 1.195858362934175e-01 -3.640714588962979e-03
2.038106808426021e-02 1.082529177538860e-01 -4.190549034657542e-03
1.110310772627277e-02 9.592654142112544e-02 -4.939642200278760e-03
3.804796996151660e-03 8.551554459600097e-02 -5.821864094549767e-03
-5.000414524912733e-04 7.911978766803829e-02 -6.542722527315914e-03
-2.758488139495086e-03 7.568289517276094e-02 -6.989844224049913e-03
-7.247574113442123e-03 6.822335734395879e-02 -7.837563714755191e-03
-1.290366479031446e-02 5.698423009599118e-02 -8.747425673478193e-03
-1.748182130664855e-02 4.497605955481332e-02 -9.234837794239836e-03
-2.008283856182558e-02 3.507394269908259e-02 -9.249676093928128e-03
-2.109872898791437e-02 2.913440059567940e-02 -9.079877587942153e-03
-2.129197926202608e-02 2.758400230015179e-02 -9.012012585777551e-03
-2.134845333443830e-02 2.707686489209327e-02 -8.987611955050712e-03
-2.142911631577410e-02 2.629278656600265e-02 -8.947714555903263e-03
-2.150960259454787e-02 2.541616192830576e-02 -8.899942727430443e-03
-2.157158738322762e-02 2.464784458481217e-02 -8.855281610488763e-03
-2.160682693632693e-02 2.415862523207701e-02 -8.825465292100820e-03
-2.173891935884170e-02 2.150442221734694e-02 -8.644451807994891e-03
-2.131995496695688e-02 1.227822622705421e-02 -7.730275272665788e-03
-1.820414301052303e-02 1.315996662529906e-03 -5.802318380808469e-03
-1.211675780824295e-02 -5.198239791942671e-03 -3.315192030094893e-03
-5.490593953721978e-03 -4.902811049569356e-03 -1.266428738724956e-03
-1.080845413321648e-03 -1.330608011818057e-03 -2.149120511225622e-04
-2.183340519228416e-04 8.974237087072678e-05 -1.288246748019084e-04
-1.290904773797980e-03 1.427219250561940e-03 -4.211925764936453e-04
-3.590846920499047e-03 6.566501877137032e-03 -2.221500765400286e-04
-7.120874641110164e-03 1.670703914137489e-02 8.177498178127962e-04
-1.108398397458205e-02 2.938790983573758e-02 2.316896788731260e-03
-1.404734554535003e-02 3.929912832007026e-02 3.502567689066094e-03
-1.585178277725474e-02 4.544100232841819e-02 4.227508040015593e-03
-2.025566703598192e-02 6.064030238315193e-02 5.966488503788892e-03
-2.816476927464073e-02 8.829917837737566e-02 8.875944874427333e-03
-3.865443061452911e-02 1.250934974919242e-01 1.217484354711340e-02
-4.934466433988038e-02 1.623260759479476e-01 1.482749228764302e-02
-5.691031008983527e-02 1.884093503552167e-01 1.627451802744240e-02
-6.588223488339962e-02 2.190053742301056e-01 1.754213066947496e-02
-6.750734073783216e-02 2.245063127362210e-01 1.772099762585277e-02
-7.007997786150888e-02 2.331883322089546e-01 1.797295417925504e-02
-7.304538731966237e-02 2.431555686992046e-01 1.821644472127293e-02
-7.572459136473730e-02 2.521234592907721e-01 1.839375595121728e-02
-7.747084905608426e-02 2.579493936841041e-01 1.848776150843401e-02
-5.909706077458610e-02 1.959012666478313e-01 1.662772695563897e-02
-5.997276310356425e-02 1.988952967701014e-01 1.676110733913161e-02
-6.135024602896177e-02 2.035976850370602e-01 1.696163890490832e-02
-6.292528908967765e-02 2.089635548909695e-01 1.717710783580007e-02
-6.433720752706662e-02 2.137636723577689e-01 1.735780403830489e-02
-6.525205826605962e-02 2.168688070510035e-01 1.746863435969059e-02
-7.951654951351972e-02 2.647761433152647e-01 1.857765814572598e-02
-8.597251711596887e-02 2.866093699369415e-01 1.873392632945770e-02
-9.607426200451674e-02 3.215283163480137e-01 1.858324312634529e-02
-1.076615200629225e-01 3.623826386108659e-01 1.781602343828137e-02
-1.181951327202595e-01 3.999096135007557e-01 1.658815641820555e-02
-1.251420741897094e-01 4.247078074574208e-01 1.551981572323102e-02
-1.294264383213843e-01 4.399812460352990e-01 1.476522628579069e-02
-1.398421410069057e-01 4.769429298116413e-01 1.264994077652037e-02
-1.570445914477712e-01 5.370971134099991e-01 8.396934643470910e-03
-1.782350683327856e-01 6.090708082382663e-01 2.133614108573489e-03
-1.988944882214938e-01 6.766537968131601e-01 -4.763384610240173e-03
-2.132402865996645e-01 7.220610034326482e-01 -9.884523665367961e-03
3.324189605749943e-01 3.450924723872632e-01 3.524594932293557e-02
2.825336190459662e-01 3.237672680778032e-01 2.633523294916529e-02
2.152819419949995e-01 2.910302282080511e-01 1.523968018109301e-02
1.532297135305033e-01 2.548080464866843e-01 6.251490983620656e-03
1.091597292860947e-01 2.234342266144729e-01 8.907142879523988e-04
8.562876329377145e-02 2.036588147232856e-01 -1.500355591827152e-03
7.975462558149138e-02 1.982728667261686e-01 -2.035102928553911e-03
7.758769344970218e-02 1.962330130068500e-01 -2.225517419311984e-03
7.428099722346537e-02 1.930616555250658e-01 -2.508735244503235e-03
7.064629212800511e-02 1.894897292830419e-01 -2.809529849914227e-03
6.751436548943746e-02 1.863353141633455e-01 -3.059626999685428e-03
6.554612218439859e-02 1.843147215642854e-01 -3.212387867588262e-03
6.288490020954884e-02 1.815335264968629e-01 -3.413402629109719e-03
5.454861220457741e-02 1.724233774511971e-01 -4.000507157195798e-03
4.278807935705231e-02 1.583698081414447e-01 -4.713150414864309e-03
3.115061948238107e-02 1.427063918385880e-01 -5.279496099207748e-03
2.214922002070863e-02 1.290243833470663e-01 -5.627215426503795e-03
1.694968471164282e-02 1.203366475142792e-01 -5.799451964421110e-03
1.426063553922408e-02 1.155775629542591e-01 -5.879808528009178e-03
8.894729706437676e-03 1.053894673919986e-01 -5.956585697697747e-03
2.034969390301566e-03 9.043744525662323e-02 -5.815252323742470e-03
-3.711810281207262e-03 7.490434579351024e-02 -5.337312635563585e-03
-7.225774891361780e-03 6.235291551655942e-02 -4.696057577831425e-03
-8.787974185531122e-03 5.489396056862805e-02 -4.204493000300680e-03
-9.125905831672221e-03 5.295113768516757e-02 -4.062822623669859e-03
-9.230011199222010e-03 5.231578183375585e-02 -4.015268879367540e-03
-9.384660389858301e-03 5.133351463164304e-02 -3.940563784142981e-03
-9.548415989630077e-03 5.023526976955439e-02 -3.855333046918652e-03
-9.683917032394795e-03 4.927256936675861e-02 -3.779142273607761e-03
-9.766253606610487e-03 4.865945825741846e-02 -3.729899518989832e-03
-1.015845351787986e-02 4.533010279265104e-02 -3.452753988291590e-03
-1.074429311632424e-02 3.364004240210527e-02 -2.352169350914757e-03
-9.361531893672503e-03 1.886759817575889e-02 -7.175839309665477e-04
-5.804004756404524e-03 7.259284126568399e-03 5.670325583517766e-04
-2.252197193461689e-03 1.511063431609450e-03 7.633207263673114e-04
-3.721313774241557e-04 8.029591746916420e-05 2.287605006321414e-04
-3.308486702904567e-04 6.805582110208652e-05 -1.263431760527567e-04
-2.196764117278954e-03 2.105452400673780e-03 -2.143282694690996e-04
-6.759349820010974e-03 1.066019684545161e-02 8.750292968837670e-04
-1.420747373371140e-02 2.764409672469736e-02 3.648991539763280e-03
-2.270599508371790e-02 4.861000418066652e-02 7.219835399676633e-03
-2.904652448587136e-02 6.475717495031202e-02 9.952956694624149e-03
-3.288658895885077e-02 7.466030456516048e-02 1.160725206076130e-02
-4.217029868439282e-02 9.884197689567276e-02 1.555465892566765e-02
-5.847855771896238e-02 1.417254865396254e-01 2.217345956721584e-02
-7.934570498846905e-02 1.966980413440858e-01 2.984231467899789e-02
-9.974007828049158e-02 2.500810051924713e-01 3.631187899564914e-02
-1.136691342508233e-01 2.861991034493839e-01 4.008962481884648e-02
-1.296750153468634e-01 3.272664521597173e-01 4.374351417012434e-02
-1.325169294105152e-01 3.345037222025376e-01 4.431232154684750e-02
-1.369808786199209e-01 3.458363129306276e-01 4.515572974745652e-02
-1.420739286450532e-01 3.587114867772159e-01 4.604220157259498e-02
-1.466279192969723e-01 3.701730161259942e-01 4.676528819605785e-02
-1.495721980157709e-01 3.775568715307708e-01 4.719730659642174e-02
-1.176204851263096e-01 2.963835498777649e-01 4.106149007116588e-02
-1.191936530820815e-01 3.004301853904894e-01 4.143584311584014e-02
-1.216577211947284e-01 3.067588934993664e-01 4.200765498587966e-02
-1.244595339869891e-01 3.139405440255976e-01 4.263609837993965e-02
-1.269570968452179e-01 3.203289935256937e-01 4.317660813435520e-02
-1.285683436898327e-01 3.244435467298659e-01 4.351537500690927e-02
-1.530148428256222e-01 3.861764147652545e-01 4.766642551443034e-02
-1.640636189133253e-01 4.139072283424776e-01 4.891296431607728e-02
-1.818437013956999e-01 4.586857851277758e-01 5.014824342298496e-02
-2.027781759213365e-01 5.115015869055810e-01 5.051189395025979e-02
-2.220967333423007e-01 5.601953495351732e-01 4.992423800631585e-02
-2.348945424546298e-01 5.923772101513272e-01 4.909835201525858e-02
-2.427856353691697e-01 6.121774565686087e-01 4.842929618339120e-02
-2.618994271141191e-01 6.599680283791209e-01 4.634151416361298e-02
-2.930206065181220e-01 7.371477820951994e-01 4.167469203060925e-02
-3.302051759762226e-01 8.281182225960166e-01 3.434352162130949e-02
-3.650073606499951e-01 9.118603289757343e-01 2.603748495063130e-02
-3.883059458024678e-01 9.671113872979520e-01 1.981241980037218e-02
3.353302367924581e-01 3.505042422222092e-01 3.485451734830036e-02
2.851999581856685e-01 3.288918175656025e-01 2.588931831117414e-02
2.176155260940285e-01 2.957365364018353e-01 1.475960456793857e-02
1.552419929612626e-01 2.590787884011154e-01 5.788633309700586e-03
1.109187112319248e-01 2.273458068059075e-01 4.740306840655961e-04
8.723314040292207e-02 2.073503398610734e-01 -1.880192033960171e-03
8.131691745116243e-02 2.019050880113349e-01 -2.404548804483042e-03
7.913401107491547e-02 1.998428316180889e-01 -2.591027430462134e-03
7.580242496833667e-02 1.966367023447549e-01 -2.868142745851898e-03
7.213958611416837e-02 1.930256895592025e-01 -3.162109332793150e-03
6.898270559082920e-02 1.898368178193128e-01 -3.406237745055662e-03
6.699841527715678e-02 1.877941808525260e-01 -3.555214828748987e-03
6.431501527508432e-02 1.849826745216026e-01 -3.751083083646023e-03
5.590519201909327e-02 1.757734387964041e-01 -4.321989686284056e-03
4.402765698491096e-02 1.615673244467568e-01 -5.012561079343669e-03
3.225267155348699e-02 1.457336599171034e-01 -5.560581774499695e-03
2.312290450021504e-02 1.319020481364305e-01 -5.899888985629431e-03
1.783691304809287e-02 1.231185699874608e-01 -6.071456841077350e-03
1.509895454837284e-02 1.183063336654037e-01 -6.152895529551117e-03
9.630348232272934e-03 1.079954580746976e-01 -6.229386065943032e-03
2.626280495992894e-03 9.283827100324815e-02 -6.079739142707652e-03
-3.261604723037159e-03 7.705755594973263e-02 -5.582702227380665e-03
-6.882269151072262e-03 6.427718911564795e-02 -4.917752914010975e-03
-8.504414291032714e-03 5.666842909697767e-02 -4.408415969304968e-03
-8.857500333240731e-03 5.468475042284393e-02 -4.261648508268934e-03
-8.966518621711606e-03 5.403586137721317e-02 -4.212385214621861e-03
-9.128720884925723e-03 5.303250175011198e-02 -4.134995506186456e-03
-9.300859681920515e-03 5.191042634405751e-02 -4.046703042048350e-03
-9.443654945374802e-03 5.092661811019095e-02 -3.967775932043338e-03
-9.530610161749054e-03 5.029995629204886e-02 -3.916764825650176e-03
-9.947517349786938e-03 4.689551225125954e-02 -3.629665044909913e-03
-1.061464698323883e-02 3.491961893046558e-02 -2.489305874961545e-03
-9.319309729526715e-03 1.972267284998896e-02 -7.933679217106970e-04
-5.810814745989962e-03 7.696176671152632e-03 5.470234832216647e-04
-2.266154906077442e-03 1.662627603472022e-03 7.681203297522643e-04
-3.761161465831095e-04 1.042481408036755e-04 2.317893326857501e-04
-3.356063193967196e-04 6.920701031498666e-05 -1.271934003579389e-04
-2.240809934423965e-03 2.163173086662307e-03 -2.157568273037924e-04
-6.923978177280299e-03 1.095830012669763e-02 8.801879942836877e-04
-1.458397336428419e-02 2.840628708384174e-02 3.669035281014033e-03
-2.332586780416906e-02 4.992333624868522e-02 7.256132237223767e-03
-2.984528123078034e-02 6.648036660699264e-02 9.999663921822943e-03
-3.379207028549963e-02 7.662895120333563e-02 1.165940209829763e-02
-4.332799525648634e-02 1.013918203040793e-01 1.561706067390745e-02
-6.005737718170756e-02 1.452445926106221e-01 2.224334983060494e-02
-8.141940712725371e-02 2.013459219058157e-01 2.990136166832258e-02
-1.022470846763754e-01 2.556993545903731e-01 3.633735769130730e-02
-1.164422044194603e-01 2.924000208699014e-01 4.007867931734310e-02
-1.327226652264419e-01 3.340522428476642e-01 4.367671326153477e-02
-1.356097533549621e-01 3.413835988691872e-01 4.423399906025161e-02
-1.401424364880348e-01 3.528578939672738e-01 4.505831448703113e-02
-1.453105513473674e-01 3.658855516857477e-01 4.592150184096866e-02
-1.499285934384239e-01 3.774750101472566e-01 4.662239702053661e-02
-1.529127228854061e-01 3.849372909702181e-01 4.703937108400424e-02
-1.204644828343658e-01 3.027374075326552e-01 4.103816569879193e-02
-1.220653211097813e-01 3.068433891344703e-01 4.140733505193239e-02
-1.245720746372132e-01 3.132632696704428e-01 4.197073374793625e-02
-1.274214468189455e-01 3.205459288728302e-01 4.258917261148376e-02
-1.299605225052558e-01 3.270220134608490e-01 4.312036877234426e-02
-1.315981066007603e-01 3.311918912891679e-01 4.345292830102387e-02
-1.564014887805756e-01 3.936458466338629e-01 4.749037096805075e-02
-1.676097833634658e-01 4.216655145571176e-01 4.867741684638283e-02
-1.856792101466418e-01 4.669171943831378e-01 4.981313905478935e-02
-2.069954289225842e-01 5.202966954177248e-01 5.005427853816435e-02
-2.266958831447630e-01 5.695111641869295e-01 4.934920266549447e-02
-2.397584301326359e-01 6.020359745453316e-01 4.844351595863650e-02
-2.478164285152800e-01 6.220463253267541e-01 4.772453172500946e-02
-2.673434050678771e-01 6.703400385968090e-01 4.551373829082728e-02
-2.991543184218897e-01 7.483162238195222e-01 4.064115748708197e-02
-3.371711921004099e-01 8.401915008329102e-01 3.305690275802142e-02
-3.727435830474251e-01 9.247265870730981e-01 2.450838203834138e-02
-3.965468388987812e-01 9.804768628110025e-01 1.811855380272220e-02
5.598819251655252e-02 1.150599377017922e-01 4.297310823988099e-03
5.011232406159971e-02 1.114300057621421e-01 3.621120224451602e-03
4.184368406027894e-02 1.057710501137762e-01 2.656586992440424e-03
3.361669317090910e-02 9.939142135710410e-02 1.634522078077794e-03
2.712992039339901e-02 9.376910320491483e-02 7.260169725231691e-04
2.327978829707644e-02 9.018082302646291e-02 1.135225964503661e-04
6.884966894352473e-03 7.350546442575512e-02 -3.603868423585510e-03
6.390846381190696e-03 7.299641155088044e-02 -3.752382165499668e-03
5.619986523007436e-03 7.220515901295799e-02 -3.988773314270944e-03
4.747252688203640e-03 7.131426048737022e-02 -4.263298918361969e-03
3.971910686319968e-03 7.052780340001685e-02 -4.513293339508451e-03
3.472694596261650e-03 7.002420228857620e-02 -4.677272118920328e-03
2.179789005760313e-02 8.875277638121482e-02 -1.417414371811532e-04
1.960660323529495e-02 8.659764331811248e-02 -5.427157622346357e-04
1.629748510273699e-02 8.325876728442905e-02 -1.209285619522049e-03
1.267261518260765e-02 7.951904553742950e-02 -2.037362792773223e-03
9.521080869388743e-03 7.623869079828438e-02 -2.851243062375275e-03
7.508945034371051e-03 7.415008834560965e-02 -3.419688933153253e-03
1.867098062087291e-01 1.587765826860809e-01 2.304631048129835e-02
1.608383703460869e-01 1.531199163886655e-01 1.878530822860469e-02
1.262617961780721e-01 1.440145350417463e-01 1.345868177754461e-02
9.464339724551030e-02 1.333901228065440e-01 9.038357034203415e-03
7.226496243985081e-02 1.237674058474929e-01 6.211047074849319e-03
6.026112236872994e-02 1.175226005770351e-01 4.791421677467156e-03
-1.308788707254196e-02 -1.862880065840455e-03 -4.417617846414146e-03
-1.170212950836913e-02 -4.036334006260023e-03 -3.667991375227331e-03
-9.188175455291769e-03 -6.036520828848091e-03 -2.531361090920115e-03
-5.914059319531248e-03 -5.990764860835940e-03 -1.366942928029857e-03
-2.714629163447099e-03 -3.634551530207419e-03 -5.149125288390621e-04
-5.495801648297272e-04 -8.553815796941144e-04 -8.883672811421661e-05
2.692481598514540e-03 6.922868636876844e-02 -4.934956006657387e-03
1.841891932541362e-04 6.644469995241020e-02 -5.737699811986019e-03
-3.331906949900154e-03 6.184610073822183e-02 -6.783885394048284e-03
-6.750518247331971e-03 5.633852165307707e-02 -7.684368782063800e-03
-9.309946292166194e-03 5.125195864822896e-02 -8.251274573954248e-03
-1.073063950708730e-02 4.791322495372019e-02 -8.509143607508207e-03
-1.134821671657593e-02 4.630804602964833e-02 -8.604400831758952e-03
-1.242816685059900e-02 4.321151535970746e-02 -8.739461279459348e-03
-1.384462497661110e-02 3.836636376801439e-02 -8.831903588284007e-03
-1.507091972330088e-02 3.291609709585430e-02 -8.777537426533755e-03
-1.584240511058788e-02 2.816132103882185e-02 -8.602818106847820e-03
-1.618911052822475e-02 2.516753484054857e-02 -8.434152767765823e-03
-1.634694582376023e-02 2.335223352710669e-02 -8.309989477830015e-03
-1.655813579310644e-02 1.911719266807410e-02 -7.955364890467109e-03
-1.644322610700388e-02 1.290915348685606e-02 -7.262718477889507e-03
-1.571528369082942e-02 6.637081996097915e-03 -6.320127999099867e-03
-1.459299190473967e-02 1.905505331755597e-03 -5.388397164654890e-03
-1.365892788450207e-02 -6.510020413792450e-04 -4.761966687546249e-03
-1.364583804355224e-02 4.893211087054827e-02 5.817627893868860e-03
-1.448150864346864e-02 5.279288989050229e-02 6.240472920808315e-03
-1.582963175188490e-02 5.907693671043712e-02 6.906035713491576e-03
-1.742073821278944e-02 6.656323193363384e-02 7.662428974136049e-03
-1.889134660462000e-02 7.353230025172514e-02 8.331195971486238e-03
-1.986626601538710e-02 7.817185388334263e-02 8.757683735570509e-03
-6.910256305806106e-03 1.959019270561180e-02 2.267010379714662e-03
-7.718564532198435e-03 2.285836784010414e-02 2.689486350671899e-03
-9.047011268928817e-03 2.842488051136183e-02 3.395393707009475e-03
-1.065050225298703e-02 3.539665143111398e-02 4.251584038840406e-03
-1.216371194543753e-02 4.216662198598098e-02 5.051051544931795e-03
-1.318207007461103e-02 4.680296213205853e-02 5.579892454040447e-03
-1.642678250607238e-04 1.073774829815077e-04 -2.166712206985721e-05
-8.660811490907583e-04 9.213662900611763e-04 -3.045953450708794e-05
-2.096265336116176e-03 3.394414097872833e-03 1.886874090573087e-04
-3.692542490674300e-03 7.916010597726786e-03 7.393693099935206e-04
-5.295925909883092e-03 1.341463499739048e-02 1.457651775570667e-03
-6.422015096639977e-03 1.766828554022459e-02 2.016307353265745e-03
-3.190014333650804e-02 1.357511061693343e-01 1.284691784101710e-02
-3.262022571855838e-02 1.391811336017769e-01 1.302229292807411e-02
-3.375928798809813e-02 1.445984232686887e-01 1.328405985056236e-02
-3.507109793674168e-02 1.508233285837282e-01 1.356195944481797e-02
-3.625539336841488e-02 1.564293234721646e-01 1.379139297067766e-02
-3.702689959390604e-02 1.600738826178559e-01 1.393000946186973e-02
-2.046074958486266e-02 8.100688667968753e-02 9.010975903922969e-03
-2.188878375919789e-02 8.783100720089249e-02 9.598079474748999e-03
-2.421105909724919e-02 9.895437454530959e-02 1.048738252853809e-02
-2.697905339653028e-02 1.122233788871915e-01 1.144019609262159e-02
-2.956135253718450e-02 1.245854805693979e-01 1.222391946170731e-02
-3.128499777838445e-02 1.328178705470542e-01 1.269099354707848e-02
-4.677281809522160e-02 2.104844028184027e-01 1.504598249931988e-02
-4.875831831007371e-02 2.217571764877981e-01 1.509045887649663e-02