<?xml version="1.0" ?> 
<!-- 
# vtk DataFile Version 3.0
-->
<VTKFile type="UnstructuredGrid" version="0.1" compressor="vtkZLibDataCompressor" byte_order="LittleEndian">
  <UnstructuredGrid>
    <FieldData>
      <DataArray type="Float64" Name="TIME" NumberOfTuples="1" format="ascii">
3.000000000000000e+00 
      </DataArray>
    </FieldData>

    <Piece NumberOfPoints="144" NumberOfCells="0" >
      <Points>
        <DataArray type="Float64" NumberOfComponents="3" format="ascii">
9.973911591788898e-01 7.070227589081610e-02 1.734723475976807e-18
8.653318377871235e-01 4.995995694850023e-01 4.527195285533925e-01
8.653318377871235e-01 4.995995694850022e-01 4.527195285533924e-01
8.408869671830003e-01 5.400341474920286e-01 5.000000000000000e-01
8.408869671830003e-01 5.400341474920286e-01 5.000000000000000e-01
7.071067811870000e-01 7.071067811870000e-01 7.146018366030000e-01
7.071067811870000e-01 7.071067811870000e-01 7.146018366030000e-01
4.995995694841946e-01 8.653318377857246e-01 9.764841446522946e-01
4.995995694841946e-01 8.653318377857246e-01 9.764841446522946e-01
4.790734834772050e-01 8.767844645519829e-01 1.000000000000000e+00
4.790734834772048e-01 8.767844645519829e-01 1.000000000000000e+00
0.000000000000000e+00 1.000000000000000e+00 1.500000000000000e+00
1.000000000000000e-01 3.000000000000000e-01 2.500000000000000e+00
4.999999999999999e-01 3.000000000000000e-01 2.709523809523774e+00
4.999999999999999e-01 3.000000000000000e-01 2.709523809523774e+00
9.999999999999997e-01 3.000000000000000e-01 2.971428571428627e+00
1.054545454545373e+00 3.000000000000000e-01 3.000000000000000e+00
1.150000000000000e+00 3.000000000000000e-01 3.050000000000000e+00
9.999999999999997e-01 3.000000000000000e-01 2.971428571428627e+00
1.054545454545372e+00 3.000000000000000e-01 3.000000000000000e+00
1.150000000000000e+00 3.000000000000000e-01 3.050000000000000e+00
1.500000000000000e+00 3.000000000000000e-01 3.233333333333286e+00
1.500000000000000e+00 2.999999999999999e-01 3.233333333333286e+00
2.000000000000000e+00 3.000000000000000e-01 3.495238095238156e+00
9.973911591791951e-01 7.070227588610377e-02 5.000000000000000e+00
8.653318377868586e-01 4.995995694848514e-01 5.452719528552424e+00
8.653318377868584e-01 4.995995694848515e-01 5.452719528552424e+00
8.408869671819502e-01 5.400341474932241e-01 5.500000000000000e+00
8.408869671819506e-01 5.400341474932233e-01 5.500000000000000e+00
7.071067811870000e-01 7.071067811870000e-01 5.714601836600000e+00
7.071067811870000e-01 7.071067811870000e-01 5.714601836600000e+00
4.995995694842540e-01 8.653318377858240e-01 5.976484144650065e+00
4.995995694842541e-01 8.653318377858241e-01 5.976484144650065e+00
4.790734834754157e-01 8.767844645530971e-01 6.000000000000000e+00
4.790734834754157e-01 8.767844645530969e-01 5.999999999999999e+00
0.000000000000000e+00 1.000000000000000e+00 6.500000000000000e+00
1.000000000000000e-01 3.000000000000000e-01 7.500000000000000e+00
4.999999999999999e-01 3.000000000000000e-01 7.709523809523774e+00
5.000000000000000e-01 3.000000000000000e-01 7.709523809523774e+00
1.000000000000000e+00 3.000000000000000e-01 7.971428571428627e+00
1.054545454545370e+00 3.000000000000000e-01 7.999999999999999e+00
1.150000000000000e+00 3.000000000000000e-01 8.050000000000001e+00
9.999999999999996e-01 3.000000000000000e-01 7.971428571428627e+00
1.054545454545370e+00 3.000000000000000e-01 7.999999999999999e+00
1.150000000000000e+00 3.000000000000000e-01 8.050000000000001e+00
1.500000000000000e+00 3.000000000000000e-01 8.233333333333286e+00
1.500000000000000e+00 3.000000000000000e-01 8.233333333333286e+00
2.000000000000000e+00 3.000000000000000e-01 8.495238095238156e+00
9.973911591791951e-01 7.070227588610380e-02 1.000000000000000e+01
8.653318377868586e-01 4.995995694848514e-01 1.045271952855243e+01
8.653318377868585e-01 4.995995694848514e-01 1.045271952855242e+01
8.408869671819499e-01 5.400341474932244e-01 1.050000000000000e+01
8.408869671819501e-01 5.400341474932240e-01 1.050000000000000e+01
7.071067811870000e-01 7.071067811870000e-01 1.071460183660000e+01
7.071067811870000e-01 7.071067811870000e-01 1.071460183660000e+01
4.995995694842541e-01 8.653318377858241e-01 1.097648414465006e+01
4.995995694842541e-01 8.653318377858241e-01 1.097648414465006e+01
4.790734834754157e-01 8.767844645530970e-01 1.100000000000000e+01
4.790734834754144e-01 8.767844645530978e-01 1.100000000000000e+01
0.000000000000000e+00 1.000000000000000e+00 1.150000000000000e+01
1.000000000000000e-01 3.000000000000000e-01 1.250000000000000e+01
4.999999999999999e-01 3.000000000000000e-01 1.270952380952378e+01
4.999999999999999e-01 3.000000000000000e-01 1.270952380952378e+01
9.999999999999999e-01 3.000000000000000e-01 1.297142857142863e+01
1.054545454545370e+00 3.000000000000000e-01 1.300000000000000e+01
1.150000000000000e+00 3.000000000000000e-01 1.305000000000000e+01
1.000000000000000e+00 3.000000000000000e-01 1.297142857142863e+01
1.054545454545363e+00 2.999999999999999e-01 1.299999999999999e+01
1.150000000000000e+00 3.000000000000000e-01 1.305000000000000e+01
1.500000000000000e+00 3.000000000000000e-01 1.323333333333329e+01
1.500000000000000e+00 3.000000000000000e-01 1.323333333333329e+01
2.000000000000000e+00 3.000000000000000e-01 1.349523809523816e+01
9.099253964686810e-01 4.123445562477631e-01 1.535465891035190e+01
8.072068738973140e-01 5.895903953275775e-01 1.555997156345694e+01
7.282908569028873e-01 6.852364697703509e-01 1.568414605091970e+01
7.071067811870000e-01 7.071067811870000e-01 1.571460183660000e+01
8.072068738973139e-01 5.895903953275780e-01 1.555997156345694e+01
7.282908569028872e-01 6.852364697703509e-01 1.568414605091970e+01
9.974169025693937e-01 7.035175387221296e-02 1.499964828143268e+01
9.099253964686809e-01 4.123445562477634e-01 1.535465891035190e+01
2.540633997442249e-01 9.663749324558524e-01 1.624282984380450e+01
0.000000000000000e+00 1.000000000000000e+00 1.650000000000000e+01
7.071067811870000e-01 7.071067811870000e-01 1.571460183660000e+01
5.836698286482834e-01 8.114624093944559e-01 1.587652933040514e+01
5.836698286482851e-01 8.114624093944550e-01 1.587652933040514e+01
4.573855792697502e-01 8.882244714677371e-01 1.602452973237035e+01
4.573855792697501e-01 8.882244714677371e-01 1.602452973237035e+01
2.540633997442271e-01 9.663749324558519e-01 1.624282984380450e+01
6.456898118068776e-01 3.000000000000000e-01 1.778583752047027e+01
8.155693453509683e-01 3.000000000000000e-01 1.787482203804104e+01
4.285291040100551e-01 3.000000000000000e-01 1.767208667352903e+01
6.456898118068786e-01 3.000000000000000e-01 1.778583752047028e+01
1.000000000000000e-01 3.000000000000000e-01 1.750000000000000e+01
4.285291040100564e-01 3.000000000000000e-01 1.767208667352903e+01
1.053627568438921e+00 3.000000000000000e-01 1.799951920251567e+01
1.150000000000000e+00 3.000000000000000e-01 1.805000000000000e+01
8.155693453509688e-01 3.000000000000000e-01 1.787482203804104e+01
1.053627568438920e+00 3.000000000000000e-01 1.799951920251567e+01
1.312800678365587e+00 2.999999999999999e-01 1.813527654581049e+01
1.590794601595392e+00 3.000000000000000e-01 1.828089241035947e+01
1.590794601595394e+00 2.999999999999999e-01 1.828089241035947e+01
1.995978191111754e+00 3.000000000000000e-01 1.849313143343955e+01
1.995978191111753e+00 3.000000000000000e-01 1.849313143343955e+01
2.000000000000000e+00 3.000000000000000e-01 1.849523809523816e+01
1.150000000000000e+00 3.000000000000000e-01 1.805000000000000e+01
1.204849796232627e+00 3.000000000000000e-01 1.807873084564564e+01
1.204849796232627e+00 3.000000000000000e-01 1.807873084564563e+01
1.312800678365586e+00 3.000000000000000e-01 1.813527654581049e+01
9.099485189372152e-01 4.122934081581782e-01 2.035460276540420e+01
8.076045172945490e-01 5.890410240244062e-01 2.055929282701539e+01
7.282909319600672e-01 6.852363897773420e-01 2.068414594118266e+01
7.071067811870000e-01 7.071067811870000e-01 2.071460183660000e+01
8.076045172945480e-01 5.890410240244077e-01 2.055929282701539e+01
7.282909319600673e-01 6.852363897773419e-01 2.068414594118266e+01
9.973911599562510e-01 7.070226533250656e-02 1.999999998940044e+01
9.099485189372151e-01 4.122934081581787e-01 2.035460276540421e+01
2.527774973574919e-01 9.667165115395006e-01 2.124416100680999e+01
0.000000000000000e+00 1.000000000000000e+00 2.150000000000000e+01
7.071067811870000e-01 7.071067811870000e-01 2.071460183660000e+01
5.837475137366747e-01 8.114069955678970e-01 2.087643382987411e+01
5.837475137366727e-01 8.114069955678983e-01 2.087643382987412e+01
4.573869885829552e-01 8.882237495531340e-01 2.102452814839284e+01
4.573869885829553e-01 8.882237495531340e-01 2.102452814839284e+01
2.527774973574926e-01 9.667165115395002e-01 2.124416100680999e+01
6.456898117728429e-01 3.000000000000000e-01 2.278583752045245e+01
8.155693453656027e-01 3.000000000000000e-01 2.287482203804870e+01
4.285291039950259e-01 3.000000000000000e-01 2.267208667352115e+01
6.456898117728418e-01 2.999999999999999e-01 2.278583752045245e+01
1.000000000000000e-01 3.000000000000000e-01 2.250000000000000e+01
4.285291039950233e-01 3.000000000000000e-01 2.267208667352115e+01
1.053627568438919e+00 3.000000000000000e-01 2.299951920251566e+01
1.150000000000000e+00 3.000000000000000e-01 2.305000000000000e+01
8.155693453656017e-01 2.999999999999999e-01 2.287482203804870e+01
1.053627568438926e+00 3.000000000000000e-01 2.299951920251567e+01
1.312800678387915e+00 3.000000000000000e-01 2.313527654582219e+01
1.590794601608110e+00 3.000000000000000e-01 2.328089241036613e+01
1.590794601608110e+00 3.000000000000000e-01 2.328089241036613e+01
1.995978191109075e+00 3.000000000000000e-01 2.349313143343815e+01
1.995978191109071e+00 2.999999999999999e-01 2.349313143343814e+01
2.000000000000000e+00 3.000000000000000e-01 2.349523809523816e+01
1.150000000000000e+00 3.000000000000000e-01 2.305000000000000e+01
1.204849796220207e+00 2.999999999999999e-01 2.307873084563913e+01
1.204849796220206e+00 3.000000000000000e-01 2.307873084563913e+01
1.312800678387914e+00 3.000000000000000e-01 2.313527654582218e+01
        </DataArray>
      </Points>

      <Cells>
        <DataArray type="Int32" Name="connectivity" format="ascii">
0 1 2 3 4 5 6 7 8 9 10 11 12 13 14 15 16 17 18 19 20 21 22 23 24 25 26 27 28 29 30 31 32 33 34 35 36 37 38 39 40 41 42 43 44 45 46 47 48 49 50 51 52 53 54 55 56 57 58 59 60 61 62 63 64 65 66 67 68 69 70 71 72 73 74 75 76 77 78 79 80 81 82 83 84 85 86 87 88 89 90 91 92 93 94 95 96 97 98 99 100 101 102 103 104 105 106 107 108 109 110 111 112 113 114 115 116 117 118 119 120 121 122 123 124 125 126 127 128 129 130 131 132 133 134 135 136 137 138 139 140 141 142 143 
        </DataArray>
        <DataArray type="Int32" Name="offsets" format="ascii">

        </DataArray>
        <DataArray type="UInt8" Name="types" format="ascii">

        </DataArray>
      </Cells>

  <PointData>
        <DataArray type="Float64" Name="displacement" NumberOfComponents="3" format="ascii">
2.707638617920696e-01 2.561292503303773e-01 2.826989606892689e-02
5.005249662054845e-02 1.412502192611254e-01 -2.575821674261458e-03
5.005249662054856e-02 1.412502192611255e-01 -2.575821674261347e-03
3.799180919719980e-02 1.289014145742765e-01 -3.209324501221078e-03
3.799180919719980e-02 1.289014145742765e-01 -3.209324501221078e-03
-1.531782529519576e-03 7.756179867606716e-02 -6.742680743341833e-03
-1.531782529519576e-03 7.756179867606716e-02 -6.742680743341833e-03
-2.127038075345161e-02 2.771413598714234e-02 -9.014115840468961e-03
-2.127038075345167e-02 2.771413598714234e-02 -9.014115840468961e-03
-2.160776670087955e-02 2.404166166382393e-02 -8.814147360853286e-03
-2.160776670087960e-02 2.404166166382393e-02 -8.814147360853286e-03
0.000000000000000e+00 0.000000000000000e+00 0.000000000000000e+00
0.000000000000000e+00 0.000000000000000e+00 0.000000000000000e+00
-1.483646023484936e-02 4.197706054936967e-02 3.819924531525576e-03
-1.483646023484952e-02 4.197706054936973e-02 3.819924531525576e-03
-5.888008628896546e-02 1.951588812431532e-01 1.659396798927837e-02
-6.548085063965092e-02 2.176447320393375e-01 1.749558604811652e-02
-7.790880589206783e-02 2.594081436903521e-01 1.850868867794953e-02
-5.888008628896546e-02 1.951588812431532e-01 1.659396798927837e-02
-6.548085063965081e-02 2.176447320393370e-01 1.749558604811696e-02
-7.790880589206783e-02 2.594081436903521e-01 1.850868867794953e-02
-1.268980300668978e-01 4.309708536956849e-01 1.521910758389566e-02
-1.268980300668976e-01 4.309708536956848e-01 1.521910758389522e-02
-2.169550886461993e-01 7.336208797175117e-01 -1.124579406172632e-02
3.457056161774081e-01 3.504479677182616e-01 3.770029309055900e-02
8.031232733717042e-02 1.987882096437357e-01 -1.984506259315566e-03
8.031232733717053e-02 1.987882096437356e-01 -1.984506259314678e-03
6.507029559772304e-02 1.838179295770267e-01 -3.248007587483670e-03
6.507029559772348e-02 1.838179295770270e-01 -3.248007587482782e-03
1.572006860428898e-02 1.181895075632167e-01 -5.837210322899189e-03
1.572006860428898e-02 1.181895075632167e-01 -5.837210322899189e-03
-9.092760242067288e-03 5.312013609244615e-02 -4.072323172936265e-03
-9.092760242067288e-03 5.312013609244615e-02 -4.072323172936265e-03
-9.779319395385788e-03 4.851820539366225e-02 -3.715424257161537e-03
-9.779319395385844e-03 4.851820539366225e-02 -3.715424257161537e-03
0.000000000000000e+00 0.000000000000000e+00 0.000000000000000e+00
0.000000000000000e+00 0.000000000000000e+00 0.000000000000000e+00
-3.072814286595466e-02 6.908460505016539e-02 1.067823224941300e-02
-3.072814286595477e-02 6.908460505016545e-02 1.067823224941300e-02
-1.172298896963988e-01 2.953780998624190e-01 4.096742836922385e-02
-1.289704341470563e-01 3.254694993318688e-01 4.359869416796247e-02
-1.503076804456973e-01 3.793980746713428e-01 4.730083356017900e-02
-1.172298896963989e-01 2.953780998624185e-01 4.096742836922207e-02
-1.289704341470563e-01 3.254694993318688e-01 4.359869416796247e-02
-1.503076804456973e-01 3.793980746713428e-01 4.730083356017900e-02
-2.381296924676248e-01 6.004992057152522e-01 4.883833276285365e-02
-2.381296924676251e-01 6.004992057152521e-01 4.883833276285365e-02
-3.942251691195449e-01 9.810417652177572e-01 1.815444492377516e-02
3.486821348525895e-01 3.559334145752432e-01 3.732711430371793e-02
8.187854455139021e-02 2.024260317214552e-01 -2.354879534113508e-03
8.187854455138999e-02 2.024260317214552e-01 -2.354879534111731e-03
6.651851914548979e-02 1.872919703268459e-01 -3.589901557633723e-03
6.651851914548990e-02 1.872919703268461e-01 -3.589901557631947e-03
1.658508334596021e-02 1.209477177148859e-01 -6.109820999716575e-03
1.658508334596021e-02 1.209477177148859e-01 -6.109820999716575e-03
-8.823203582594530e-03 5.485707504996740e-02 -4.271664323962199e-03
-8.823203582594530e-03 5.485707504996740e-02 -4.271664323962199e-03
-9.544887791610557e-03 5.015528756097520e-02 -3.901938186283260e-03
-9.544887791610723e-03 5.015528756097487e-02 -3.901938186283260e-03
0.000000000000000e+00 0.000000000000000e+00 0.000000000000000e+00
0.000000000000000e+00 0.000000000000000e+00 0.000000000000000e+00
-3.157379762254681e-02 7.091559699689087e-02 1.072740646236703e-02
-3.157379762254681e-02 7.091559699689087e-02 1.072740646236703e-02
-1.200669669457244e-01 3.017170859198567e-01 4.094536844827168e-02
-1.320067150978894e-01 3.322315015128287e-01 4.353467399660360e-02
-1.536579672670241e-01 3.867975551013907e-01 4.713905388113915e-02
-1.200669669457246e-01 3.017170859198568e-01 4.094536844827168e-02
-1.320067150978880e-01 3.322315015128253e-01 4.353467399660360e-02
-1.536579672670241e-01 3.867975551013907e-01 4.713905388113915e-02
-2.430617022767574e-01 6.102442515426214e-01 4.816309144390907e-02
-2.430617022767574e-01 6.102442515426214e-01 4.816309144390907e-02
-4.025924627667432e-01 9.945298790946822e-01 1.641845204186332e-02
5.754172132537960e-02 1.159689407318274e-01 4.474989960048248e-03
2.235718236862350e-02 8.929229936308103e-02 -4.410071871774335e-05
7.008521247037436e-03 7.363349821451448e-02 -3.566283118031421e-03
3.348894765696109e-03 6.990058083607331e-02 -4.717548716126174e-03
2.235718236862327e-02 8.929229936308081e-02 -4.410071871596699e-05
7.008521247037658e-03 7.363349821451459e-02 -3.566283118033198e-03
1.936319537985491e-01 1.601636279260439e-01 2.422116960219256e-02
5.754172132537927e-02 1.159689407318273e-01 4.474989960046472e-03
-1.339763254657655e-02 -1.214534923942856e-03 -4.603178124771290e-03
0.000000000000000e+00 0.000000000000000e+00 0.000000000000000e+00
3.348894765696109e-03 6.990058083607331e-02 -4.717548716126174e-03
-1.105391041854842e-02 4.707999161692811e-02 -8.559470255335100e-03
-1.105391041854831e-02 4.707999161692822e-02 -8.559470255335100e-03
-1.625142213414471e-02 2.443906544520857e-02 -8.383798193634107e-03
-1.625142213414471e-02 2.443906544520846e-02 -8.383798193634107e-03
-1.339763254657661e-02 -1.214534923942745e-03 -4.603178124767737e-03
-1.344137420665448e-02 4.799216076758955e-02 5.713073607367392e-03
-2.011276545082075e-02 7.934689581025123e-02 8.863337669783533e-03
-6.714360782653639e-03 1.881400754435236e-02 2.165938038032778e-03
-1.344137420665459e-02 4.799216076758978e-02 5.713073607367392e-03
0.000000000000000e+00 0.000000000000000e+00 0.000000000000000e+00
-6.714360782653750e-03 1.881400754435253e-02 2.165938038029225e-03
-3.172221921401297e-02 1.349029813808185e-01 1.280239799772787e-02
-3.722034723882706e-02 1.609867689574124e-01 1.396343284000068e-02
-2.011276545082097e-02 7.934689581025128e-02 8.863337669783533e-03
-3.172221921401319e-02 1.349029813808183e-01 1.280239799772431e-02
-4.627606599184442e-02 2.077079801521076e-01 1.502361041772460e-02
-6.140476085686442e-02 2.963591889368223e-01 1.364705974499003e-02
-6.140476085686442e-02 2.963591889368229e-01 1.364705974499003e-02
-9.400358029732603e-02 4.641525764403323e-01 2.672406719050002e-03
-9.400358029732581e-02 4.641525764403319e-01 2.672406719046450e-03
-9.444445972379945e-02 4.661370046295304e-01 2.501609668982496e-03
-3.722034723882706e-02 1.609867689574124e-01 1.396343284000068e-02
-4.039782354958121e-02 1.764800604938266e-01 1.445734793530207e-02
-4.039782354958121e-02 1.764800604938264e-01 1.445734793530562e-02
-4.627606599184464e-02 2.077079801521072e-01 1.502361041772460e-02
1.187247112077663e-01 2.328334853265391e-01 1.659779164516095e-03
4.991851167163330e-02 1.683340377533896e-01 -4.133978842055797e-03
2.233292615479421e-02 1.300745950500291e-01 -5.443255994599383e-03
1.680674612179389e-02 1.208584235684456e-01 -5.683431205007139e-03
4.991851167163286e-02 1.683340377533890e-01 -4.133978842059349e-03
2.233292615479421e-02 1.300745950500291e-01 -5.443255994599383e-03
3.432442491430994e-01 3.504261182047381e-01 3.649192547570124e-02
1.187247112077660e-01 2.328334853265388e-01 1.659779164516095e-03
-8.134602333342983e-03 1.343478489132199e-02 -1.504588998990641e-04
0.000000000000000e+00 0.000000000000000e+00 0.000000000000000e+00
1.680674612179389e-02 1.208584235684456e-01 -5.683431205007139e-03
-3.449552219756291e-03 7.685149148183557e-02 -5.471959644534508e-03
-3.449552219756513e-03 7.685149148183490e-02 -5.471959644534508e-03
-1.043088523720620e-02 4.514703546053578e-02 -3.532401105573513e-03
-1.043088523720626e-02 4.514703546053556e-02 -3.532401105577065e-03
-8.134602333343011e-03 1.343478489132210e-02 -1.504588999026168e-04
-5.261676566513540e-02 1.253797069511399e-01 1.934782672634938e-02
-8.226553605361764e-02 2.032508218461752e-01 3.020227011302978e-02
-2.292297847896324e-02 4.868380027142855e-02 7.076972565062789e-03
-5.261676566513540e-02 1.253797069511396e-01 1.934782672635293e-02
0.000000000000000e+00 0.000000000000000e+00 0.000000000000000e+00
-2.292297847896296e-02 4.868380027142788e-02 7.076972565066342e-03
-1.311691986615857e-01 3.299674808873244e-01 4.345089928625612e-02
-1.528385714824156e-01 3.847467021992741e-01 4.714136226444765e-02
-8.226553605361753e-02 2.032508218461748e-01 3.020227011302978e-02
-1.311691986615873e-01 3.299674808873284e-01 4.345089928625256e-02
-1.919635741483705e-01 4.829447342297814e-01 5.019096852826621e-02
-2.674169632601568e-01 6.711323714671136e-01 4.601042560844704e-02
-2.674169632601568e-01 6.711323714671137e-01 4.601042560845059e-02
-3.984827790922127e-01 9.859075103294663e-01 1.890769606296061e-02
-3.984827790922116e-01 9.859075103294631e-01 1.890769606296416e-02
-3.999166601554456e-01 9.892444406564496e-01 1.851472397876464e-02
-1.528385714824156e-01 3.847467021992741e-01 4.714136226444765e-02
-1.656178609702348e-01 4.167830679970974e-01 4.862437651775764e-02
-1.656178609702343e-01 4.167830679970970e-01 4.862437651775764e-02
-1.919635741483703e-01 4.829447342297805e-01 5.019096852826976e-02
        </DataArray>
        <DataArray type="Float64" Name="projection_direction" NumberOfComponents="3" format="ascii">
5.123527548172024e-03 1.406494145848597e-02 -5.275464397209582e-03
1.065695518332732e-02 1.495912551969336e-02 -2.433145187638819e-03
1.065695518332732e-02 1.495912551969336e-02 -2.433145187638819e-03
4.339360289260741e-03 9.757668267383779e-03 -2.476481076572501e-03
4.339360289260741e-03 9.757668267383779e-03 -2.476481076572501e-03
-3.325142403710846e-03 -5.877295781479330e-03 5.490919726807153e-04
-3.325142403710846e-03 -5.877295781479330e-03 5.490919726807153e-04
4.175001099230691e-03 1.072434939891465e-02 -7.683184883717775e-04
4.175001099230746e-03 1.072434939891476e-02 -7.683184883721106e-04
2.055856981680426e-03 6.908731343564734e-03 -5.990754014065791e-04
2.055856981680482e-03 6.908731343564845e-03 -5.990754014065791e-04
0.000000000000000e+00 0.000000000000000e+00 0.000000000000000e+00
-5.201933010464677e-04 1.833890791698045e-03 6.813529529603457e-05
1.108243053027813e-03 -9.926073400588042e-03 -1.939745396783987e-03
1.108243053028035e-03 -9.926073400588042e-03 -1.939745396783543e-03
5.657539689605251e-04 -3.079576692436414e-03 1.124563318626315e-03
2.702735985021798e-04 -1.404456148913935e-03 3.479720108057194e-04
2.580554435627214e-05 -2.972468112912852e-04 -5.861014885830684e-04
5.657539689604141e-04 -3.079576692436414e-03 1.124563318626315e-03
2.702735985021798e-04 -1.404456148913602e-03 3.479720108057194e-04
2.580554435627214e-05 -2.972468112912852e-04 -5.861014885830684e-04
8.567929744536240e-04 -1.992651655507771e-03 1.324001712262657e-03
8.567929744538461e-04 -1.992651655507549e-03 1.324001712263545e-03
2.248256907625201e-03 -2.900285108764056e-03 1.026968634384229e-03
-7.937134179332839e-03 -5.827821913047315e-03 -3.689838882380059e-03
-2.878194225420128e-03 -2.414420765539438e-03 -3.207204484210635e-03
-2.878194225420239e-03 -2.414420765539660e-03 -3.207204484211523e-03
-3.458792277984180e-03 -3.388268883591783e-03 -3.032505516737949e-03
-3.458792277984291e-03 -3.388268883591894e-03 -3.032505516739725e-03
6.810507594086079e-04 5.500954527279944e-04 7.890997703663416e-04
6.810507594086079e-04 5.500954527279944e-04 7.890997703663416e-04
-7.390701703768876e-04 -5.308923896829576e-05 -1.540873361305373e-04
-7.390701703769431e-04 -5.308923896818474e-05 -1.540873361305373e-04
-9.500902528785105e-04 -5.473193442026014e-04 -1.820852230371983e-04
-9.500902528783439e-04 -5.473193442024904e-04 -1.820852230354220e-04
0.000000000000000e+00 0.000000000000000e+00 8.881784197001252e-16
-4.094810208475907e-04 -2.461547490192062e-03 -8.343935543848602e-04
8.973230033688662e-04 1.575277069050973e-03 4.091242117763016e-04
8.973230033689217e-04 1.575277069051029e-03 4.091242117780780e-04
7.482117874380023e-06 -9.762753313304895e-04 2.064344112664429e-04
6.560105126691695e-04 3.190459712099081e-05 4.555581837735190e-04
5.307355270489644e-05 6.124812875344388e-04 -6.138698212510008e-05
7.482117874824112e-06 -9.762753313298234e-04 2.064344112699956e-04
6.560105126691695e-04 3.190459712110183e-05 4.555581837735190e-04
5.307355270489644e-05 6.124812875344388e-04 -6.138698212510008e-05
9.389281977025821e-04 -5.075344697598183e-04 7.792663773074082e-04
9.389281977028041e-04 -5.075344697594852e-04 7.792663773074082e-04
1.508942238120925e-03 6.763927664341640e-04 4.567978974883147e-04
-7.707181756146708e-03 -5.523038392878044e-03 -3.968204475622628e-03
-3.664100598491760e-03 -1.941557667292093e-03 -3.219152208272291e-03
-3.664100598491649e-03 -1.941557667292315e-03 -3.219152208272291e-03
-4.150672784763332e-03 -3.376635216769119e-03 -3.285083420550450e-03
-4.150672784763221e-03 -3.376635216769119e-03 -3.285083420548673e-03
1.174967009899275e-03 7.652892992305871e-04 5.602380642404370e-04
1.174967009899275e-03 7.652892992305871e-04 5.602380642404370e-04
-7.525251339443595e-04 -2.449204249485026e-04 -1.745761482965236e-04
-7.525251339444705e-04 -2.449204249487247e-04 -1.745761482965236e-04
-7.212593710558823e-04 -5.836020921868856e-04 -4.253907751170516e-04
-7.212593710557713e-04 -5.836020921866636e-04 -4.253907751170516e-04
0.000000000000000e+00 0.000000000000000e+00 0.000000000000000e+00
2.544510041821435e-05 -3.486050186063017e-03 -1.018442156105692e-03
1.382173849748813e-04 5.364791706986005e-04 4.372470304687681e-04
1.382173849750479e-04 5.364791706984895e-04 4.372470304669918e-04
1.272070846390916e-04 -9.660341773837233e-04 3.317269723108751e-04
8.030532581517758e-04 2.468889899753801e-05 7.524407050976123e-04
-1.576562706414597e-04 6.209578830298490e-04 1.440528640372918e-05
1.272070846386475e-04 -9.660341773833903e-04 3.317269723126515e-04
8.030532581517758e-04 2.468889899798210e-05 7.524407051011650e-04
-1.576562706414597e-04 6.209578830298490e-04 1.440528640372918e-05
1.397025168245358e-03 -6.693805827862054e-04 6.808997327159005e-04
1.397025168244914e-03 -6.693805827859833e-04 6.808997327194533e-04
9.027617206913696e-05 2.770696936537753e-03 -5.738546006437417e-04
6.472715858519829e-03 6.281053040293805e-03 -2.402707665094539e-04
-7.290207516754132e-03 -3.670779101846322e-03 -1.079333261595039e-03
4.812578111533905e-03 7.383727479448710e-03 -7.915382241918678e-04
2.345421839218931e-03 2.901486303292788e-03 -1.422306013179053e-04
-7.290207516754243e-03 -3.670779101846100e-03 -1.079333261602144e-03
4.812578111533905e-03 7.383727479448599e-03 -7.915382241900915e-04
-7.555884123818357e-03 2.179647552770864e-03 -3.673045925436824e-03
6.472715858520051e-03 6.281053040293916e-03 -2.402707665076775e-04
-1.746537060689030e-03 -2.637594923524555e-03 -2.892733459916030e-04
6.607341516560084e-18 0.000000000000000e+00 0.000000000000000e+00
2.345421839218931e-03 2.901486303292788e-03 -1.422306013179053e-04
-1.806830052804798e-03 -7.652891876033463e-03 1.032745858006834e-03
-1.806830052804909e-03 -7.652891876033463e-03 1.032745858005057e-03
5.184207701252663e-03 1.323255312504612e-02 -4.576718215396625e-04
5.184207701252719e-03 1.323255312504623e-02 -4.576718215396625e-04
-1.746537060689085e-03 -2.637594923524444e-03 -2.892733459880503e-04
-1.463617924404303e-04 2.874904270032674e-04 -3.454808096847728e-05
-4.304722733849964e-05 1.026276413840399e-03 9.017732178691062e-04
1.312308919780791e-03 -7.084182901503477e-03 -1.097950091988764e-03
-1.463617924402083e-04 2.874904270033229e-04 -3.454808096492457e-05
-9.507284229813284e-04 2.277569962200465e-03 3.707147634912644e-04
1.312308919780791e-03 -7.084182901503699e-03 -1.097950091988764e-03
-4.350081050734644e-04 2.421063415967761e-03 -2.958237654304696e-04
-9.091787164683396e-06 -1.730375808515816e-03 -6.656797619086774e-05
-4.304722733827759e-05 1.026276413840399e-03 9.017732178691062e-04
-4.350081050732424e-04 2.421063415967872e-03 -2.958237654269169e-04
6.982626093401390e-04 -1.471396205895315e-03 -1.430194706273369e-04
3.310418351483158e-04 -2.286723737995322e-03 8.080790108841995e-04
3.310418351483158e-04 -2.286723737995655e-03 8.080790108806468e-04
2.357865200372178e-03 -6.392207902351288e-03 9.884687631078748e-04
2.357865200372400e-03 -6.392207902351066e-03 9.884687631114275e-04
2.534436991959099e-03 -6.901450604856141e-03 1.053822461223319e-03
-9.091787164683396e-06 -1.730375808515816e-03 -6.656797619086774e-05
2.815653983898603e-04 -4.741001726455696e-03 2.307925724629456e-04
2.815653983898603e-04 -4.741001726455585e-03 2.307925724664983e-04
6.982626093403610e-04 -1.471396205895537e-03 -1.430194706273369e-04
-4.583449202675283e-04 6.857660495358520e-04 -3.901452150287810e-04
-2.895067326329825e-03 -2.082693359993448e-03 -1.291654355714655e-03
-2.788123271835197e-05 6.603367891132583e-04 4.081209245541118e-04
5.421753704525356e-04 5.891186803556048e-04 5.931337228943789e-04
-2.895067326329936e-03 -2.082693359993559e-03 -1.291654355725314e-03
-2.788123271857401e-05 6.603367891132583e-04 4.081209245576645e-04
-9.314876852034581e-03 -4.274053870150563e-03 -3.808140156689177e-03
-4.583449202675283e-04 6.857660495360740e-04 -3.901452150394391e-04
-4.987941071461499e-04 5.046849607936998e-05 2.237349465517013e-04
1.471021400259857e-18 0.000000000000000e+00 -1.421085471520200e-14
5.421753704525356e-04 5.891186803556048e-04 5.931337228943789e-04
1.756676052755868e-03 7.463651766292934e-04 4.507850887875975e-04
1.756676052755868e-03 7.463651766297374e-04 4.507850887840448e-04
-9.725219503008420e-04 -3.044775849209147e-04 -3.273126071512422e-04
-9.725219503007310e-04 -3.044775849211367e-04 -3.273126071476895e-04
-4.987941071462054e-04 5.046849607925896e-05 2.237349465552541e-04
2.686040206142382e-04 -5.494569603208821e-04 -2.172937769664429e-04
-8.901062368696921e-04 -1.183657438406871e-03 -1.697008870387151e-04
1.971787104176892e-05 2.276633105442238e-03 -5.734849709071455e-05
2.686040206144602e-04 -5.494569603210486e-04 -2.172937769628902e-04
-2.629475609672305e-05 -2.829252184203435e-03 -6.066672984275101e-04
1.971787104115830e-05 2.276633105442682e-03 -5.734849708716183e-05
6.519036552954383e-04 -4.179812507207892e-04 2.014189763386298e-04
-1.061234550263634e-04 2.872127161297477e-04 -2.786930792382236e-04
-8.901062368693591e-04 -1.183657438406538e-03 -1.697008870351624e-04
6.519036552956603e-04 -4.179812507215663e-04 2.014189763315244e-04
6.157029120616997e-04 8.160552733270654e-04 2.056538557333454e-04
-4.694822834740986e-04 -1.057759117056967e-03 5.348199978385537e-04
-4.694822834736545e-04 -1.057759117056856e-03 5.348199978385537e-04
5.513853870442453e-04 -5.096090903193851e-04 6.084852045731282e-04