<?xml version="1.0" ?> 
<!-- 
# vtk DataFile Version 3.0
-->
<VTKFile type="UnstructuredGrid" version="0.1" compressor="vtkZLibDataCompressor" byte_order="LittleEndian">
  <UnstructuredGrid>
    <FieldData>
      <DataArray type="Float64" Name="TIME" NumberOfTuples="1" format="ascii">
3.000000000000000e+00 
      </DataArray>
    </FieldData>

    <Piece NumberOfPoints="60" NumberOfCells="0" >
      <Points>
        <DataArray type="Float64" NumberOfComponents="3" format="ascii">
1.000000000000000e+00 0.000000000000000e+00 -7.079632679490000e-02
7.071067811870000e-01 7.071067811870000e-01 7.146018366030000e-01
9.229382397090955e-01 3.822935361201370e-01 3.219027549043409e-01
7.071067811870000e-01 7.071067811870000e-01 7.146018366030000e-01
0.000000000000000e+00 1.000000000000000e+00 1.500000000000000e+00
3.822935361194013e-01 9.229382397077746e-01 1.107300918301373e+00
1.000000000000000e-01 3.000000000000000e-01 2.500000000000000e+00
1.150000000000000e+00 3.000000000000000e-01 3.050000000000000e+00
6.250000000000000e-01 3.000000000000000e-01 2.775000000000000e+00
1.150000000000000e+00 3.000000000000000e-01 3.050000000000000e+00
2.200000000000000e+00 3.000000000000000e-01 3.600000000000000e+00
1.675000000000000e+00 3.000000000000000e-01 3.325000000000000e+00
1.000000000000000e+00 0.000000000000000e+00 4.929203673210000e+00
7.071067811870000e-01 7.071067811870000e-01 5.714601836600000e+00
9.229382397087392e-01 3.822935361199894e-01 5.321902754905291e+00
7.071067811870000e-01 7.071067811870000e-01 5.714601836600000e+00
0.000000000000000e+00 1.000000000000000e+00 6.500000000000000e+00
3.822935361194574e-01 9.229382397079099e-01 6.107300918299873e+00
1.000000000000000e-01 3.000000000000000e-01 7.500000000000000e+00
1.150000000000000e+00 3.000000000000000e-01 8.050000000000001e+00
6.249999999999999e-01 3.000000000000000e-01 7.775000000000000e+00
1.150000000000000e+00 3.000000000000000e-01 8.050000000000001e+00
2.200000000000000e+00 3.000000000000000e-01 8.600000000000000e+00
1.675000000000000e+00 3.000000000000000e-01 8.324999999999999e+00
1.000000000000000e+00 0.000000000000000e+00 9.929203673210001e+00
7.071067811870000e-01 7.071067811870000e-01 1.071460183660000e+01
9.229382397087392e-01 3.822935361199894e-01 1.032190275490529e+01
7.071067811870000e-01 7.071067811870000e-01 1.071460183660000e+01
0.000000000000000e+00 1.000000000000000e+00 1.150000000000000e+01
3.822935361194573e-01 9.229382397079099e-01 1.110730091829987e+01
1.000000000000000e-01 3.000000000000000e-01 1.250000000000000e+01
1.150000000000000e+00 3.000000000000000e-01 1.305000000000000e+01
6.249999999999999e-01 3.000000000000000e-01 1.277500000000000e+01
1.150000000000000e+00 3.000000000000000e-01 1.305000000000000e+01
2.200000000000000e+00 3.000000000000000e-01 1.360000000000000e+01
1.675000000000000e+00 3.000000000000000e-01 1.332500000000000e+01
1.000000000000000e+00 0.000000000000000e+00 1.492920367320000e+01
7.071067811870000e-01 7.071067811870000e-01 1.571460183660000e+01
9.229382397091902e-01 3.822935361201762e-01 1.532190275490029e+01
7.071067811870000e-01 7.071067811870000e-01 1.571460183660000e+01
0.000000000000000e+00 1.000000000000000e+00 1.650000000000000e+01
3.822935361194573e-01 9.229382397079099e-01 1.610730091829987e+01
1.000000000000000e-01 3.000000000000000e-01 1.750000000000000e+01
1.150000000000000e+00 3.000000000000000e-01 1.805000000000000e+01
6.249999999999999e-01 3.000000000000000e-01 1.777500000000000e+01
1.150000000000000e+00 3.000000000000000e-01 1.805000000000000e+01
2.200000000000000e+00 3.000000000000000e-01 1.860000000000000e+01
1.675000000000000e+00 3.000000000000000e-01 1.832500000000000e+01
1.000000000000000e+00 0.000000000000000e+00 1.992920367320000e+01
7.071067811870000e-01 7.071067811870000e-01 2.071460183660000e+01
9.229382397091902e-01 3.822935361201762e-01 2.032190275490029e+01
7.071067811870000e-01 7.071067811870000e-01 2.071460183660000e+01
0.000000000000000e+00 1.000000000000000e+00 2.150000000000000e+01
3.822935361194573e-01 9.229382397079099e-01 2.110730091829987e+01
1.000000000000000e-01 3.000000000000000e-01 2.250000000000000e+01
1.150000000000000e+00 3.000000000000000e-01 2.305000000000000e+01
6.250000000000000e-01 3.000000000000000e-01 2.277500000000000e+01
1.150000000000000e+00 3.000000000000000e-01 2.305000000000000e+01
2.200000000000000e+00 3.000000000000000e-01 2.360000000000000e+01
1.675000000000000e+00 3.000000000000000e-01 2.332500000000000e+01
        </DataArray>
      </Points>

      <Cells>
        <DataArray type="Int32" Name="connectivity" format="ascii">
0 1 2 3 4 5 6 7 8 9 10 11 12 13 14 15 16 17 18 19 20 21 22 23 24 25 26 27 28 29 30 31 32 33 34 35 36 37 38 39 40 41 42 43 44 45 46 47 48 49 50 51 52 53 54 55 56 57 58 59 
        </DataArray>
        <DataArray type="Int32" Name="offsets" format="ascii">

        </DataArray>
        <DataArray type="UInt8" Name="types" format="ascii">

        </DataArray>
      </Cells>

  <PointData>
        <DataArray type="Float64" Name="displacement" NumberOfComponents="3" format="ascii">
3.282792328259188e-01 2.706213394843632e-01 4.074432799350811e-02
-1.531782529519576e-03 7.756179867606716e-02 -6.742680743341833e-03
9.221312179047181e-02 1.761059881503500e-01 4.555715176831621e-04
-1.531782529519576e-03 7.756179867606716e-02 -6.742680743341833e-03
0.000000000000000e+00 0.000000000000000e+00 0.000000000000000e+00
-2.087610033841775e-02 9.572815699539383e-03 -7.357291153902379e-03
0.000000000000000e+00 0.000000000000000e+00 0.000000000000000e+00
-7.790880589206783e-02 2.594081436903521e-01 1.850868867794953e-02
-2.312135486096090e-02 7.062940911449689e-02 7.057749296628391e-03
-7.790880589206783e-02 2.594081436903521e-01 1.850868867794953e-02
-2.658373876623341e-01 8.787509977899590e-01 -3.008255209387389e-02
-1.544628363651057e-01 5.281576515464144e-01 9.088703244740426e-03
4.119697536396330e-01 3.753936316289872e-01 5.038062825852663e-02
1.572006860428898e-02 1.181895075632167e-01 -5.837210322899189e-03
1.329401866833811e-01 2.411116509938374e-01 3.658479885555010e-03
1.572006860428898e-02 1.181895075632167e-01 -5.837210322899189e-03
0.000000000000000e+00 0.000000000000000e+00 0.000000000000000e+00
-1.064768196797183e-02 3.013906112958198e-02 -1.983373950351641e-03
0.000000000000000e+00 0.000000000000000e+00 0.000000000000000e+00
-1.503076804456973e-01 3.793980746713428e-01 4.730083356017900e-02
-4.813552512951857e-02 1.144916879583183e-01 1.803003025049765e-02
-1.503076804456973e-01 3.793980746713428e-01 4.730083356017900e-02
-4.680679182381802e-01 1.151102978634267e+00 -4.753651707895656e-03
-2.883966857028104e-01 7.257363932614920e-01 4.245919317946267e-02
4.152745923323780e-01 3.812358464912981e-01 5.011816118248369e-02
1.658508334596021e-02 1.209477177148859e-01 -6.109820999716575e-03
1.348398434119086e-01 2.452235699121059e-01 3.213379769276159e-03
1.658508334596021e-02 1.209477177148859e-01 -6.109820999716575e-03
0.000000000000000e+00 0.000000000000000e+00 0.000000000000000e+00
-1.054061822038765e-02 3.132501539124954e-02 -2.107139887431941e-03
0.000000000000000e+00 0.000000000000000e+00 0.000000000000000e+00
-1.536579672670241e-01 3.867975551013907e-01 4.713905388113915e-02
-4.945061574943110e-02 1.174042614749145e-01 1.809675689062118e-02
-1.536579672670241e-01 3.867975551013907e-01 4.713905388113915e-02
-4.779336487600592e-01 1.165973617239261e+00 -7.022395682719562e-03
-2.944271248821972e-01 7.367885650183301e-01 4.145661368167808e-02
2.384375465511595e-01 1.680522068071134e-01 3.212967253163868e-02
3.348894765696109e-03 6.990058083607331e-02 -4.717548716126174e-03
6.524798860865910e-02 1.202275556128934e-01 5.372727590202686e-03
3.348894765696109e-03 6.990058083607331e-02 -4.717548716126174e-03
0.000000000000000e+00 0.000000000000000e+00 0.000000000000000e+00
-1.643942436955864e-02 1.296138907559008e-02 -7.266535564848908e-03
0.000000000000000e+00 0.000000000000000e+00 0.000000000000000e+00
-3.722034723882706e-02 1.609867689574124e-01 1.396343284000068e-02
-1.271564295899952e-02 4.467240552457397e-02 5.338768720356768e-03
-3.722034723882706e-02 1.609867689574124e-01 1.396343284000068e-02
-1.204773426034702e-01 5.746960596276176e-01 -7.713575744261902e-03
-6.667695230939463e-02 3.266878033748445e-01 1.231593071046788e-02
4.091218458813859e-01 3.748827398745860e-01 4.918560123924465e-02
1.680674612179389e-02 1.208584235684456e-01 -5.683431205007139e-03
1.331751399258766e-01 2.433548839587069e-01 3.296493497792596e-03
1.680674612179389e-02 1.208584235684456e-01 -5.683431205007139e-03
0.000000000000000e+00 0.000000000000000e+00 0.000000000000000e+00
-1.087091206887281e-02 3.103376373101796e-02 -2.171941266947641e-03
0.000000000000000e+00 0.000000000000000e+00 0.000000000000000e+00
-1.528385714824156e-01 3.847467021992741e-01 4.714136226444765e-02
-4.936366330465647e-02 1.168551584340034e-01 1.805242921542316e-02
-1.528385714824156e-01 3.847467021992741e-01 4.714136226444765e-02
-4.746837806572750e-01 1.159835191194669e+00 -4.079611721042653e-03
-2.925305083438794e-01 7.328400277961105e-01 4.242103292198962e-02
        </DataArray>
        <DataArray type="Float64" Name="lambda" NumberOfComponents="3" format="ascii">
7.670007434551704e-02 2.859778684186452e-02 -2.983018172088599e-03
1.352729521916184e-02 3.290085055848199e-02 2.522737042023393e-03
2.091655277291811e-04 -1.439281282542145e-02 -6.831574225839227e-03
1.352729521916184e-02 3.290085055848199e-02 2.522737042023393e-03
6.449553904169607e-02 1.381158945595080e-01 2.636850322469243e-02
-3.693439708032163e-03 -1.071921330556115e-02 3.512082281582933e-04
-1.247561232404897e-02 -2.406226382388305e-02 -5.771527098560343e-03
-1.196435495243277e-03 -7.659608708963540e-03 -5.272739314584592e-04
2.205291832567645e-03 2.545910341750549e-03 1.142576727503050e-03
-1.196435495243277e-03 -7.659608708963540e-03 -5.272739314584592e-04
-1.728956843464567e-02 1.721838630180469e-02 -8.531868750951738e-03
6.705427027240848e-03 6.310624289685514e-03 3.788238119805649e-03
6.105785890970595e-02 7.264410316856141e-03 4.128983759784250e-03
6.776123127887629e-03 6.706596856448272e-03 -1.292590938937700e-04
2.760080500960698e-03 -5.157225278141300e-03 -6.033507481042421e-03
6.776123127887629e-03 6.706596856448272e-03 -1.292590938937700e-04
7.957575011319905e-03 1.024581119839121e-02 4.162214156443324e-03
-1.361685656971477e-03 -8.937330493961387e-04 2.257561217723764e-05
-2.048209592190035e-03 7.809032898331772e-04 1.033821076906118e-03
1.948218079929436e-03 4.952579091706820e-03 5.021983258489075e-03
2.556868677941225e-03 -3.825748147895956e-03 -6.643630883424414e-04
1.948218079929436e-03 4.952579091706820e-03 5.021983258489075e-03
-1.680015047374177e-02 3.168854341823505e-02 -1.357749883981070e-03
5.412476575246115e-03 3.294253289355189e-03 2.086318214383152e-03
6.019468631684580e-02 6.894121524796335e-03 3.991945378817631e-03
6.043996020340085e-03 6.359779545943463e-03 -1.588916565631456e-04
2.913697734924660e-03 -4.933675331656851e-03 -5.835275664957492e-03
6.043996020340085e-03 6.359779545943463e-03 -1.588916565631456e-04
6.878245455712689e-03 8.669601895431957e-03 3.801500590257656e-03
-8.527305057896969e-04 -8.816431267697861e-04 -1.423627787273841e-04
-1.650966662661272e-03 7.941938687420271e-05 1.298745935778688e-03
1.579962500307519e-03 4.459506324152466e-03 4.842990347709785e-03
2.787905189509938e-03 -3.607207994032769e-03 -5.633654853079408e-04
1.579962500307519e-03 4.459506324152466e-03 4.842990347709785e-03
-1.690816828070569e-02 3.043915171151750e-02 -1.411948421692523e-03
5.404956722714558e-03 3.498362211690699e-03 2.076730928516869e-03
9.079568752978662e-02 2.053266196427899e-02 5.509627980327260e-03
2.552493289072535e-02 2.403928798161416e-02 4.386684561486766e-03
-7.675885907245788e-03 -9.464574320872051e-03 -5.622997582645835e-03
2.552493289072535e-02 2.403928798161416e-02 4.386684561486766e-03
8.541145997602642e-02 1.450617873566038e-01 2.705097894688068e-02
-6.452703809291381e-03 -8.173445707410236e-03 -3.180629162779234e-03
1.161072375480801e-02 -1.342469859859510e-02 -4.523296085870874e-03
1.037036680752354e-03 -9.874831128397193e-04 -1.929579192154005e-03
-4.543658722310081e-04 2.723383272681817e-04 7.697006287134322e-04
1.037036680752354e-03 -9.874831128397193e-04 -1.929579192154005e-03
-1.010752208485807e-02 3.616136730798782e-02 -9.270621125492805e-03
4.022147518005337e-03 1.807850973994532e-03 2.968059185755309e-03
6.233694140519366e-02 6.177938947562839e-03 1.957945074243476e-03
6.539985113718286e-03 6.245118189789397e-03 -8.522669377753141e-04
2.424432516179266e-03 -4.835686192744387e-03 -5.375090614556035e-03
6.539985113718286e-03 6.245118189789397e-03 -8.522669377753141e-04
6.904872815574300e-03 8.882148082886036e-03 3.604216022013747e-03
-8.240126013615758e-04 -7.812077598454171e-04 7.045903424493025e-05
-2.343462903907322e-03 4.881184415484938e-05 -1.809414647513776e-04
1.577689934601240e-03 5.064221653587700e-03 4.587207047346589e-03
2.977232446141215e-03 -3.784765225585913e-03 -3.435625972511960e-04
1.577689934601240e-03 5.064221653587700e-03 4.587207047346589e-03
-1.652228551419132e-02 3.245906627491076e-02 -1.767332469505371e-03
5.377923230157820e-03 3.179502007689542e-03 2.157350530660018e-03
        </DataArray>
        <DataArray type="Float64" Name="uid_0_pair_beam_id" format="ascii">
2.670000000000000e+02
2.670000000000000e+02
2.670000000000000e+02
2.680000000000000e+02
2.680000000000000e+02
2.680000000000000e+02
2.690000000000000e+02
2.690000000000000e+02
2.690000000000000e+02
2.700000000000000e+02
2.700000000000000e+02
2.700000000000000e+02
2.710000000000000e+02
2.710000000000000e+02
2.710000000000000e+02
2.720000000000000e+02
2.720000000000000e+02
2.720000000000000e+02
2.730000000000000e+02
2.730000000000000e+02
2.730000000000000e+02
2.740000000000000e+02
2.740000000000000e+02
2.740000000000000e+02
2.750000000000000e+02
2.750000000000000e+02
2.750000000000000e+02
2.760000000000000e+02
2.760000000000000e+02
2.760000000000000e+02
2.770000000000000e+02
2.770000000000000e+02
2.770000000000000e+02
2.780000000000000e+02
2.780000000000000e+02
2.780000000000000e+02
2.790000000000000e+02
2.790000000000000e+02
2.790000000000000e+02
2.800000000000000e+02
2.800000000000000e+02
2.800000000000000e+02
2.810000000000000e+02
2.810000000000000e+02
2.810000000000000e+02
2.820000000000000e+02
2.820000000000000e+02
2.820000000000000e+02
2.830000000000000e+02
2.830000000000000e+02
2.830000000000000e+02
2.840000000000000e+02
2.840000000000000e+02
2.840000000000000e+02
2.850000000000000e+02
2.850000000000000e+02
2.850000000000000e+02
2.860000000000000e+02
2.860000000000000e+02
2.860000000000000e+02
        </DataArray>
        <DataArray type="Float64" Name="uid_1_pair_solid_id" format="ascii">
0.000000000000000e+00
0.000000000000000e+00
0.000000000000000e+00
0.000000000000000e+00
0.000000000000000e+00
0.000000000000000e+00
9.000000000000000e+00
9.000000000000000e+00
9.000000000000000e+00
9.000000000000000e+00
9.000000000000000e+00
9.000000000000000e+00
1.700000000000000e+01
1.700000000000000e+01
1.700000000000000e+01
1.700000000000000e+01
1.700000000000000e+01
1.700000000000000e+01
2.600000000000000e+01
2.600000000000000e+01
2.600000000000000e+01
2.600000000000000e+01
2.600000000000000e+01
2.600000000000000e+01
3.400000000000000e+01
3.400000000000000e+01
3.400000000000000e+01
3.400000000000000e+01
3.400000000000000e+01
3.400000000000000e+01
4.300000000000000e+01
4.300000000000000e+01
4.300000000000000e+01
4.300000000000000e+01
4.300000000000000e+01
4.300000000000000e+01
5.100000000000000e+01
5.100000000000000e+01
5.100000000000000e+01
5.100000000000000e+01
5.100000000000000e+01
5.100000000000000e+01
9.900000000000000e+01
9.900000000000000e+01
9.900000000000000e+01
9.900000000000000e+01
9.900000000000000e+01
9.900000000000000e+01
1.590000000000000e+02
1.590000000000000e+02
1.590000000000000e+02
1.590000000000000e+02
1.590000000000000e+02
1.590000000000000e+02
2.070000000000000e+02
2.070000000000000e+02
2.070000000000000e+02
2.070000000000000e+02
2.070000000000000e+02
2.070000000000000e+02
        </DataArray>
      </PointData>

    </Piece>
  </UnstructuredGrid>
</VTKFile>
