<?xml version="1.0" ?> 
<!-- 
# vtk DataFile Version 3.0
-->
<VTKFile type="UnstructuredGrid" version="0.1" compressor="vtkZLibDataCompressor" byte_order="LittleEndian">
  <UnstructuredGrid>
    <FieldData>
      <DataArray type="Float64" Name="TIME" NumberOfTuples="1" format="ascii">
1.000000010000000e+00 
      </DataArray>
    </FieldData>

    <Piece NumberOfPoints="144" NumberOfCells="0" >
      <Points>
        <DataArray type="Float64" NumberOfComponents="3" format="ascii">
9.973931072023355e-01 7.070273513256668e-02 1.240327285323417e-16
8.653443956098175e-01 4.996068197473151e-01 4.527204716394890e-01
8.653443956098175e-01 4.996068197473150e-01 4.527204716394889e-01
8.408972616915400e-01 5.400395384249512e-01 4.999999999999998e-01
8.408972616915398e-01 5.400395384249513e-01 5.000000000000001e-01
7.071067811870000e-01 7.071067811870000e-01 7.146018366030000e-01
7.071067811870000e-01 7.071067811870000e-01 7.146018366030000e-01
4.996068197465068e-01 8.653443956084172e-01 9.764832015661981e-01
4.996068197465065e-01 8.653443956084172e-01 9.764832015661981e-01
4.790802794582723e-01 8.767986476933665e-01 1.000000000000000e+00
4.790802794582724e-01 8.767986476933666e-01 1.000000000000000e+00
0.000000000000000e+00 1.000000000000000e+00 1.500000000000000e+00
1.000000000000000e-01 3.000000000000000e-01 2.500000000000000e+00
4.999999999999999e-01 3.000000000000000e-01 2.709523809523774e+00
4.999999999999999e-01 3.000000000000000e-01 2.709523809523774e+00
9.999999999999997e-01 3.000000000000000e-01 2.971428571428627e+00
1.054545454545373e+00 3.000000000000000e-01 3.000000000000000e+00
1.150000000000000e+00 3.000000000000000e-01 3.050000000000000e+00
9.999999999999997e-01 3.000000000000000e-01 2.971428571428627e+00
1.054545454545372e+00 3.000000000000000e-01 3.000000000000000e+00
1.150000000000000e+00 3.000000000000000e-01 3.050000000000000e+00
1.500000000000000e+00 3.000000000000000e-01 3.233333333333286e+00
1.500000000000000e+00 2.999999999999999e-01 3.233333333333286e+00
2.000000000000000e+00 3.000000000000000e-01 3.495238095238156e+00
9.973931072026406e-01 7.070273512785311e-02 4.999999999999998e+00
8.653443956095526e-01 4.996068197471643e-01 5.452720471638520e+00
8.653443956095527e-01 4.996068197471640e-01 5.452720471638521e+00
8.408972616904894e-01 5.400395384261474e-01 5.500000000000001e+00
8.408972616904897e-01 5.400395384261472e-01 5.500000000000000e+00
7.071067811870000e-01 7.071067811870000e-01 5.714601836600000e+00
7.071067811870000e-01 7.071067811870000e-01 5.714601836600000e+00
4.996068197465661e-01 8.653443956085167e-01 5.976483201563966e+00
4.996068197465660e-01 8.653443956085167e-01 5.976483201563966e+00
4.790802794564817e-01 8.767986476944817e-01 6.000000000000001e+00
4.790802794564817e-01 8.767986476944815e-01 6.000000000000001e+00
0.000000000000000e+00 1.000000000000000e+00 6.500000000000000e+00
1.000000000000000e-01 3.000000000000000e-01 7.500000000000000e+00
4.999999999999999e-01 3.000000000000000e-01 7.709523809523774e+00
5.000000000000000e-01 3.000000000000000e-01 7.709523809523774e+00
1.000000000000000e+00 3.000000000000000e-01 7.971428571428627e+00
1.054545454545370e+00 3.000000000000000e-01 7.999999999999999e+00
1.150000000000000e+00 3.000000000000000e-01 8.050000000000001e+00
9.999999999999996e-01 3.000000000000000e-01 7.971428571428627e+00
1.054545454545370e+00 3.000000000000000e-01 7.999999999999999e+00
1.150000000000000e+00 3.000000000000000e-01 8.050000000000001e+00
1.500000000000000e+00 3.000000000000000e-01 8.233333333333286e+00
1.500000000000000e+00 3.000000000000000e-01 8.233333333333286e+00
2.000000000000000e+00 3.000000000000000e-01 8.495238095238156e+00
9.973931072026406e-01 7.070273512785397e-02 1.000000000000000e+01
8.653443956095526e-01 4.996068197471642e-01 1.045272047163852e+01
8.653443956095525e-01 4.996068197471640e-01 1.045272047163852e+01
8.408972616904911e-01 5.400395384261447e-01 1.050000000000000e+01
8.408972616904904e-01 5.400395384261458e-01 1.050000000000000e+01
7.071067811870000e-01 7.071067811870000e-01 1.071460183660000e+01
7.071067811870000e-01 7.071067811870000e-01 1.071460183660000e+01
4.996068197465661e-01 8.653443956085167e-01 1.097648320156397e+01
4.996068197465660e-01 8.653443956085166e-01 1.097648320156397e+01
4.790802794564824e-01 8.767986476944813e-01 1.100000000000000e+01
4.790802794564840e-01 8.767986476944802e-01 1.100000000000000e+01
0.000000000000000e+00 1.000000000000000e+00 1.150000000000000e+01
1.000000000000000e-01 3.000000000000000e-01 1.250000000000000e+01
4.999999999999999e-01 3.000000000000000e-01 1.270952380952378e+01
4.999999999999999e-01 3.000000000000000e-01 1.270952380952378e+01
9.999999999999999e-01 3.000000000000000e-01 1.297142857142863e+01
1.054545454545370e+00 3.000000000000000e-01 1.300000000000000e+01
1.150000000000000e+00 3.000000000000000e-01 1.305000000000000e+01
1.000000000000000e+00 3.000000000000000e-01 1.297142857142863e+01
1.054545454545363e+00 2.999999999999999e-01 1.299999999999999e+01
1.150000000000000e+00 3.000000000000000e-01 1.305000000000000e+01
1.500000000000000e+00 3.000000000000000e-01 1.323333333333329e+01
1.500000000000000e+00 3.000000000000000e-01 1.323333333333329e+01
2.000000000000000e+00 3.000000000000000e-01 1.349523809523816e+01
9.099418396092167e-01 4.123520859599072e-01 1.535465927548243e+01
8.072131304353306e-01 5.895942770789958e-01 1.555997188189464e+01
7.282911557660177e-01 6.852367478256445e-01 1.568414612346445e+01
7.071067811870000e-01 7.071067811870000e-01 1.571460183660000e+01
8.072131304353315e-01 5.895942770789949e-01 1.555997188189463e+01
7.282911557660178e-01 6.852367478256446e-01 1.568414612346445e+01
9.974188365449633e-01 7.035216465623562e-02 1.499964823725036e+01
9.099418396092164e-01 4.123520859599082e-01 1.535465927548244e+01
2.540680715836868e-01 9.663884211005249e-01 1.624282971409468e+01
0.000000000000000e+00 1.000000000000000e+00 1.650000000000000e+01
7.071067811870000e-01 7.071067811870000e-01 1.571460183660000e+01
5.836739772285683e-01 8.114691146331118e-01 1.587652897058727e+01
5.836739772285665e-01 8.114691146331131e-01 1.587652897058727e+01
4.573928745921861e-01 8.882395524102783e-01 1.602452946266590e+01
4.573928745921863e-01 8.882395524102782e-01 1.602452946266590e+01
2.540680715836858e-01 9.663884211005251e-01 1.624282971409468e+01
6.456898118068776e-01 3.000000000000000e-01 1.778583752047027e+01
8.155693453509683e-01 3.000000000000000e-01 1.787482203804104e+01
4.285291040100551e-01 3.000000000000000e-01 1.767208667352903e+01
6.456898118068786e-01 3.000000000000000e-01 1.778583752047028e+01
1.000000000000000e-01 3.000000000000000e-01 1.750000000000000e+01
4.285291040100564e-01 3.000000000000000e-01 1.767208667352903e+01
1.053627568438921e+00 3.000000000000000e-01 1.799951920251567e+01
1.150000000000000e+00 3.000000000000000e-01 1.805000000000000e+01
8.155693453509688e-01 3.000000000000000e-01 1.787482203804104e+01
1.053627568438920e+00 3.000000000000000e-01 1.799951920251567e+01
1.312800678365587e+00 2.999999999999999e-01 1.813527654581049e+01
1.590794601595392e+00 3.000000000000000e-01 1.828089241035947e+01
1.590794601595394e+00 2.999999999999999e-01 1.828089241035947e+01
1.995978191111754e+00 3.000000000000000e-01 1.849313143343955e+01
1.995978191111753e+00 3.000000000000000e-01 1.849313143343955e+01
2.000000000000000e+00 3.000000000000000e-01 1.849523809523816e+01
1.150000000000000e+00 3.000000000000000e-01 1.805000000000000e+01
1.204849796232627e+00 3.000000000000000e-01 1.807873084564564e+01
1.204849796232627e+00 3.000000000000000e-01 1.807873084564563e+01
1.312800678365586e+00 3.000000000000000e-01 1.813527654581049e+01
9.099650212282833e-01 4.123008091368154e-01 2.035460298935891e+01
8.076108102509388e-01 5.890449378240545e-01 2.055929315811432e+01
7.282912294134957e-01 6.852366693390888e-01 2.068414601579194e+01
7.071067811870000e-01 7.071067811870000e-01 2.071460183660000e+01
8.076108102509387e-01 5.890449378240550e-01 2.055929315811432e+01
7.282912294134957e-01 6.852366693390887e-01 2.068414601579193e+01
9.973931080192998e-01 7.070272402876927e-02 1.999999998885323e+01
9.099650212282825e-01 4.123008091368171e-01 2.035460298935891e+01
2.527815540384724e-01 9.667300861487244e-01 2.124416147965651e+01
0.000000000000000e+00 1.000000000000000e+00 2.150000000000000e+01
7.071067811870000e-01 7.071067811870000e-01 2.071460183660000e+01
5.837516764426331e-01 8.114136823547504e-01 2.087643344895820e+01
5.837516764426303e-01 8.114136823547525e-01 2.087643344895821e+01
4.573945845398238e-01 8.882386764163273e-01 2.102452754077683e+01
4.573945845398237e-01 8.882386764163273e-01 2.102452754077683e+01
2.527815540384729e-01 9.667300861487242e-01 2.124416147965650e+01
6.456898117728429e-01 3.000000000000000e-01 2.278583752045245e+01
8.155693453656027e-01 3.000000000000000e-01 2.287482203804870e+01
4.285291039950259e-01 3.000000000000000e-01 2.267208667352115e+01
6.456898117728418e-01 2.999999999999999e-01 2.278583752045245e+01
1.000000000000000e-01 3.000000000000000e-01 2.250000000000000e+01
4.285291039950233e-01 3.000000000000000e-01 2.267208667352115e+01
1.053627568438919e+00 3.000000000000000e-01 2.299951920251566e+01
1.150000000000000e+00 3.000000000000000e-01 2.305000000000000e+01
8.155693453656017e-01 2.999999999999999e-01 2.287482203804870e+01
1.053627568438926e+00 3.000000000000000e-01 2.299951920251567e+01
1.312800678387915e+00 3.000000000000000e-01 2.313527654582219e+01
1.590794601608110e+00 3.000000000000000e-01 2.328089241036613e+01
1.590794601608110e+00 3.000000000000000e-01 2.328089241036613e+01
1.995978191109075e+00 3.000000000000000e-01 2.349313143343815e+01
1.995978191109071e+00 2.999999999999999e-01 2.349313143343814e+01
2.000000000000000e+00 3.000000000000000e-01 2.349523809523816e+01
1.150000000000000e+00 3.000000000000000e-01 2.305000000000000e+01
1.204849796220207e+00 2.999999999999999e-01 2.307873084563913e+01
1.204849796220206e+00 3.000000000000000e-01 2.307873084563913e+01
1.312800678387914e+00 3.000000000000000e-01 2.313527654582218e+01
        </DataArray>
      </Points>

      <Cells>
        <DataArray type="Int32" Name="connectivity" format="ascii">
0 1 2 3 4 5 6 7 8 9 10 11 12 13 14 15 16 17 18 19 20 21 22 23 24 25 26 27 28 29 30 31 32 33 34 35 36 37 38 39 40 41 42 43 44 45 46 47 48 49 50 51 52 53 54 55 56 57 58 59 60 61 62 63 64 65 66 67 68 69 70 71 72 73 74 75 76 77 78 79 80 81 82 83 84 85 86 87 88 89 90 91 92 93 94 95 96 97 98 99 100 101 102 103 104 105 106 107 108 109 110 111 112 113 114 115 116 117 118 119 120 121 122 123 124 125 126 127 128 129 130 131 132 133 134 135 136 137 138 139 140 141 142 143 
        </DataArray>
        <DataArray type="Int32" Name="offsets" format="ascii">

        </DataArray>
        <DataArray type="UInt8" Name="types" format="ascii">

        </DataArray>
      </Cells>

  <PointData>
        <DataArray type="Float64" Name="displacement" NumberOfComponents="3" format="ascii">
1.851258585010666e-01 1.705084016784017e-01 7.246847985780981e-03
3.320894129004115e-02 1.003495381394718e-01 -6.271706749676531e-03
3.320894129004126e-02 1.003495381394718e-01 -6.271706749676476e-03
2.439483701982370e-02 9.154260869129160e-02 -6.351260492293231e-03
2.439483701982381e-02 9.154260869129160e-02 -6.351260492293287e-03
-4.840603457002324e-03 5.515792579965428e-02 -8.254935977108135e-03
-4.840603457002324e-03 5.515792579965428e-02 -8.254935977108135e-03
-1.914627859005186e-02 1.866365735815123e-02 -9.586738146698082e-03
-1.914627859005164e-02 1.866365735815112e-02 -9.586738146698082e-03
-1.935104036084523e-02 1.581495167904423e-02 -9.368292277714851e-03
-1.935104036084528e-02 1.581495167904412e-02 -9.368292277715184e-03
0.000000000000000e+00 0.000000000000000e+00 0.000000000000000e+00
0.000000000000000e+00 0.000000000000000e+00 0.000000000000000e+00
-7.594221666233913e-03 2.388073504341609e-02 2.308113687625735e-03
-7.594221666233858e-03 2.388073504341615e-02 2.308113687625735e-03
-2.748779578640059e-02 1.138504089070329e-01 1.071200036766262e-02
-3.031977125710061e-02 1.273720608476194e-01 1.147584081517694e-02
-3.557694386677124e-02 1.526818501593732e-01 1.257128922143957e-02
-2.748779578640059e-02 1.138504089070329e-01 1.071200036766262e-02
-3.031977125710039e-02 1.273720608476192e-01 1.147584081517650e-02
-3.557694386677124e-02 1.526818501593732e-01 1.257128922143957e-02
-5.501069100279810e-02 2.569688017616722e-01 1.334695531035024e-02
-5.501069100279787e-02 2.569688017616722e-01 1.334695531034980e-02
-8.958113505584442e-02 4.466595346816319e-01 4.394318294504984e-03
2.902857203495520e-01 2.996057627356837e-01 9.582629987874292e-03
7.073585501081958e-02 1.758129686202680e-01 -7.338853705846304e-03
7.073585501081936e-02 1.758129686202680e-01 -7.338853705847193e-03
5.747841203904314e-02 1.627430065593890e-01 -7.790292268094134e-03
5.747841203904303e-02 1.627430065593890e-01 -7.790292268092358e-03
1.399886293711006e-02 1.047616796201734e-01 -7.937526859878474e-03
1.399886293711006e-02 1.047616796201734e-01 -7.937526859878474e-03
-7.791689353916220e-03 4.702050412256387e-02 -4.572617053588246e-03
-7.791689353916054e-03 4.702050412256398e-02 -4.572617053586470e-03
-8.392921222467264e-03 4.292958987628537e-02 -4.152960531180305e-03
-8.392921222467209e-03 4.292958987628559e-02 -4.152960531180305e-03
0.000000000000000e+00 0.000000000000000e+00 0.000000000000000e+00
0.000000000000000e+00 0.000000000000000e+00 0.000000000000000e+00
-1.587928845508857e-02 4.231877523754057e-02 7.650908764456510e-03
-1.587928845508862e-02 4.231877523754063e-02 7.650908764456510e-03
-5.699654253829323e-02 1.864741794687879e-01 2.914510777688495e-02
-6.243390150888262e-02 2.063716760853235e-01 3.113313091170422e-02
-7.224584617169971e-02 2.425342726608533e-01 3.406977240794795e-02
-5.699654253829323e-02 1.864741794687876e-01 2.914510777688495e-02
-6.243390150888262e-02 2.063716760853235e-01 3.113313091170422e-02
-7.224584617169971e-02 2.425342726608533e-01 3.406977240794795e-02
-1.107244624292689e-01 3.921989002827543e-01 3.820709099279007e-02
-1.107244624292691e-01 3.921989002827542e-01 3.820709099278830e-02
-1.780674910235058e-01 6.555134989259253e-01 2.503181498253326e-02
2.950628871966120e-01 3.082195814958786e-01 8.976077115084635e-03
7.278658577487773e-02 1.813753541725593e-01 -7.896990167932216e-03
7.278658577487784e-02 1.813753541725594e-01 -7.896990167932216e-03
5.931584995118300e-02 1.680119624797423e-01 -8.322398739759151e-03
5.931584995118266e-02 1.680119624797418e-01 -8.322398739760928e-03
1.488204931696946e-02 1.086411157364392e-01 -8.402905664116389e-03
1.488204931696946e-02 1.086411157364392e-01 -8.402905664116389e-03
-7.699081295928001e-03 4.916266508851741e-02 -4.902745461013325e-03
-7.699081295928056e-03 4.916266508851763e-02 -4.902745461013325e-03
-8.336499254951835e-03 4.492732355552742e-02 -4.461720879049835e-03
-8.336499254951779e-03 4.492732355552786e-02 -4.461720879055164e-03
0.000000000000000e+00 0.000000000000000e+00 0.000000000000000e+00
0.000000000000000e+00 0.000000000000000e+00 0.000000000000000e+00
-1.613581527959890e-02 4.340585446889106e-02 7.719413132520003e-03
-1.613581527959901e-02 4.340585446889106e-02 7.719413132520003e-03
-5.790297128553534e-02 1.903389710969079e-01 2.926778782997985e-02
-6.341586110401598e-02 2.105247362445515e-01 3.124766063696605e-02
-7.335653717411983e-02 2.471493204918740e-01 3.415953276341455e-02
-5.790297128553579e-02 1.903389710969079e-01 2.926778782997985e-02
-6.341586110401498e-02 2.105247362445495e-01 3.124766063696782e-02
-7.335653717411983e-02 2.471493204918740e-01 3.415953276341455e-02
-1.125241037390667e-01 3.986170992140292e-01 3.810347974175521e-02
-1.125241037390667e-01 3.986170992140292e-01 3.810347974175521e-02
-1.816311365192345e-01 6.651421477793926e-01 2.443097144927719e-02
3.252033736057125e-02 7.110400042675818e-02 1.731536427460156e-03
1.214358152808703e-02 5.611722452857926e-02 -1.056304242826656e-03
3.010186215255395e-03 4.767495191909998e-02 -3.660312493522611e-03
7.786491889232305e-04 4.579422204352768e-02 -4.523273806993799e-03
1.214358152808714e-02 5.611722452857926e-02 -1.056304242824879e-03
3.010186215255395e-03 4.767495191909998e-02 -3.660312493522611e-03
1.120760557538273e-01 9.054619847951939e-02 1.160983104565361e-02
3.252033736057114e-02 7.110400042675807e-02 1.731536427458380e-03
-1.103054446198704e-02 -4.877716779971841e-03 -4.440982070708088e-03
0.000000000000000e+00 0.000000000000000e+00 0.000000000000000e+00
7.786491889232305e-04 4.579422204352768e-02 -4.523273806993799e-03
-8.478777682704663e-03 3.165606622668526e-02 -7.462186180134722e-03
-8.478777682704774e-03 3.165606622668493e-02 -7.462186180134722e-03
-1.238756211847175e-02 1.492792815444188e-02 -7.403081650675603e-03
-1.238756211847175e-02 1.492792815444188e-02 -7.403081650675603e-03
-1.103054446198698e-02 -4.877716779971841e-03 -4.440982070704536e-03
-6.339376858549683e-03 2.542720116308422e-02 3.283240750977967e-03
-9.231070449882361e-03 4.215800292726885e-02 5.153995845187609e-03
-3.280508023781548e-03 9.964969122778611e-03 1.261455415111357e-03
-6.339376858549683e-03 2.542720116308428e-02 3.283240750970862e-03
0.000000000000000e+00 0.000000000000000e+00 0.000000000000000e+00
-3.280508023781603e-03 9.964969122778611e-03 1.261455415111357e-03
-1.402620643959596e-02 7.207616457963523e-02 7.725292095205560e-03
-1.621561057631649e-02 8.623605870263434e-02 8.621731464469207e-03
-9.231070449882361e-03 4.215800292726890e-02 5.153995845187609e-03
-1.402620643959596e-02 7.207616457963506e-02 7.725292095209113e-03
-1.967506458590917e-02 1.115024940522522e-01 9.701854314410951e-03
-2.489908608795521e-02 1.593390720344433e-01 1.003671075054413e-02
-2.489908608795499e-02 1.593390720344436e-01 1.003671075054413e-02
-3.523233659822389e-02 2.523582385711911e-01 7.037037514297850e-03
-3.523233659822411e-02 2.523582385711908e-01 7.037037514294298e-03
-3.537165522729135e-02 2.534813562348261e-01 6.986151912371952e-03
-1.621561057631649e-02 8.623605870263434e-02 8.621731464469207e-03
-1.745575897611840e-02 9.464583105407487e-02 9.057822322347420e-03
-1.745575897611817e-02 9.464583105407476e-02 9.057822322347420e-03
-1.967506458590917e-02 1.115024940522519e-01 9.701854314414504e-03
1.044419740466285e-01 2.079269167404557e-01 -6.169880439816922e-03
4.428717507440927e-02 1.512173169055046e-01 -8.261109049310988e-03
1.968019954439670e-02 1.169509682510101e-01 -8.251627258893279e-03
1.478046055905247e-02 1.086888673098589e-01 -8.166506008702612e-03
4.428717507440916e-02 1.512173169055043e-01 -8.261109049307436e-03
1.968019954439659e-02 1.169509682510101e-01 -8.251627258893279e-03
2.897800933290974e-01 3.030083465086331e-01 8.823013318352224e-03
1.044419740466277e-01 2.079269167404553e-01 -6.169880439813369e-03
-7.106558837808225e-03 1.195438835933149e-02 -3.746403573572366e-04
0.000000000000000e+00 0.000000000000000e+00 0.000000000000000e+00
1.478046055905247e-02 1.086888673098589e-01 -8.166506008702612e-03
-3.088653483368953e-03 6.917058019691136e-02 -6.610164348277436e-03
-3.088653483369286e-03 6.917058019691058e-02 -6.610164348284542e-03
-9.201705075148947e-03 4.059403869525580e-02 -4.052958367690707e-03
-9.201705075148947e-03 4.059403869525580e-02 -4.052958367690707e-03
-7.106558837808225e-03 1.195438835933149e-02 -3.746403573536838e-04
-2.616076634098352e-02 7.664140786799251e-02 1.373986904896896e-02
-4.013339614600775e-02 1.255743233602074e-01 2.142555621719211e-02
-1.186150932086549e-02 2.949835037071036e-02 5.165038371917063e-03
-2.616076634098341e-02 7.664140786799228e-02 1.373986904896896e-02
0.000000000000000e+00 0.000000000000000e+00 0.000000000000000e+00
-1.186150932086533e-02 2.949835037070991e-02 5.165038371917063e-03
-6.280144868749582e-02 2.077120440028232e-01 3.120712967267991e-02
-7.272754255649816e-02 2.443314106243333e-01 3.418745800706091e-02
-4.013339614600775e-02 1.255743233602071e-01 2.142555621719211e-02
-6.280144868749615e-02 2.077120440028257e-01 3.120712967267991e-02
-9.014263104300513e-02 3.105686193424277e-01 3.747248473834830e-02
-1.224440074777666e-01 4.380069282564841e-01 3.797331615744071e-02
-1.224440074777666e-01 4.380069282564841e-01 3.797331615744071e-02
-1.789926727789417e-01 6.560665803186154e-01 2.631197341132818e-02
-1.789926727789410e-01 6.560665803186133e-01 2.631197341132818e-02
-1.796280197660574e-01 6.584228300598347e-01 2.611844318692036e-02
-7.272754255649816e-02 2.443314106243333e-01 3.418745800706091e-02
-7.850692032090123e-02 2.659544150721640e-01 3.553277221087470e-02
-7.850692032090101e-02 2.659544150721638e-01 3.553277221087470e-02
-9.014263104300468e-02 3.105686193424271e-01 3.747248473835185e-02
        </DataArray>
        <DataArray type="Float64" Name="projection_direction" NumberOfComponents="3" format="ascii">
9.718762816959048e-03 1.431274614829026e-02 -3.936331199625605e-03
1.294707463503819e-02 1.455616140000315e-02 -1.903515948498247e-03
1.294707463503808e-02 1.455616140000326e-02 -1.903515948498358e-03
6.215190412850014e-03 9.579487005394682e-03 -1.939767374821322e-03
6.215190412849902e-03 9.579487005394793e-03 -1.939767374821488e-03
-3.944079310781001e-03 -5.834626110956753e-03 4.207754185533430e-04
-3.944079310781001e-03 -5.834626110956753e-03 4.207754185533430e-04
5.096733976917844e-03 1.127058454451435e-02 -5.588630050337162e-04
5.096733976917900e-03 1.127058454451446e-02 -5.588630050333832e-04
2.752831527927380e-03 7.196943542513656e-03 -4.197013739427602e-04
2.752831527927380e-03 7.196943542513656e-03 -4.197013739424271e-04
0.000000000000000e+00 0.000000000000000e+00 0.000000000000000e+00
-2.991265333257692e-04 1.037275220893530e-03 3.853253952534885e-05
3.636556140077518e-04 -5.726161772987737e-03 -1.102490128872979e-03
3.636556140076963e-04 -5.726161772987737e-03 -1.102490128872535e-03
2.977632573308853e-05 -1.652992261972241e-03 5.331880414147783e-04
2.993537651785338e-05 -5.853677594032658e-04 1.759445096523038e-04
4.889402555940947e-05 -1.125153995797934e-04 -2.900473848792551e-04
2.977632573308853e-05 -1.652992261972297e-03 5.331880414143342e-04
2.993537651785338e-05 -5.853677594032103e-04 1.759445096527479e-04
4.889402555940947e-05 -1.125153995797934e-04 -2.900473848792551e-04
3.154721559861517e-04 -1.549281067951047e-03 6.345738619226715e-04
3.154721559863738e-04 -1.549281067951047e-03 6.345738619235597e-04
1.191485439718587e-03 -2.639064114688172e-03 4.952498828041385e-04
-5.129093631195181e-03 -4.662906501997521e-03 -2.351943496134545e-03
-1.706878142161417e-03 -1.844200746421332e-03 -2.187458931929065e-03
-1.706878142161639e-03 -1.844200746421221e-03 -2.187458931930841e-03
-1.807733910425213e-03 -2.669844762278273e-03 -2.191078504906407e-03
-1.807733910425102e-03 -2.669844762278273e-03 -2.191078504907296e-03
4.085875241177650e-04 4.438692731092431e-04 6.033087165029372e-04
4.085875241177650e-04 4.438692731092431e-04 6.033087165029372e-04
-5.972430534542661e-04 -2.932065502891934e-05 -1.538242643484011e-04
-5.972430534543216e-04 -2.932065502891934e-05 -1.538242643501775e-04
-7.146576937006599e-04 -4.203999604839304e-04 -1.444264125112227e-04
-7.146576937004379e-04 -4.203999604838193e-04 -1.444264125112227e-04
0.000000000000000e+00 0.000000000000000e+00 8.881784197001252e-16
-4.581641280140547e-04 -1.343001455628878e-03 -5.448759336079689e-04
6.599328057407816e-04 7.772347588763662e-04 3.653531026177603e-04
6.599328057408371e-04 7.772347588763662e-04 3.653531026195367e-04
1.425362537150754e-04 -2.724672440650444e-04 1.727788411294284e-04
6.552183993773220e-04 1.854832909994331e-04 3.476426255488718e-04
1.562168835516076e-04 3.103682640903660e-04 -2.977421300975891e-05
1.425362537154085e-04 -2.724672440646558e-04 1.727788411329811e-04
6.552183993775440e-04 1.854832909994331e-04 3.476426255488718e-04
1.562168835516076e-04 3.103682640903660e-04 -2.977421300975891e-05
2.477807133483001e-04 -2.304671615090959e-04 5.567623052993298e-04
2.477807133489662e-04 -2.304671615090959e-04 5.567623053028825e-04
2.981741753518286e-04 3.801701197159169e-04 4.578290356356263e-04
-4.914368437972660e-03 -4.375800657587026e-03 -2.473578972674417e-03
-2.080570900038992e-03 -1.453325059900701e-03 -2.170277034803547e-03
-2.080570900038881e-03 -1.453325059900479e-03 -2.170277034803547e-03
-2.212039633091578e-03 -2.756721221332414e-03 -2.332947850550937e-03
-2.212039633091578e-03 -2.756721221332303e-03 -2.332947850550937e-03
7.895591692739234e-04 6.343753460883450e-04 3.480827890314231e-04
7.895591692739234e-04 6.343753460883450e-04 3.480827890314231e-04
-6.016861677966556e-04 -1.983037643614738e-04 -1.624958063715098e-04
-6.016861677964336e-04 -1.983037643615848e-04 -1.624958063697335e-04
-5.062193057063791e-04 -4.896345170876115e-04 -3.729925948405821e-04
-5.062193057062125e-04 -4.896345170872785e-04 -3.729925948334767e-04
0.000000000000000e+00 0.000000000000000e+00 0.000000000000000e+00
-2.466571699557968e-04 -1.760261281474551e-03 -6.182506578404912e-04
1.138662895396880e-04 2.380881516376165e-04 3.072812132902669e-04
1.138662895399101e-04 2.380881516375055e-04 3.072812132867142e-04
2.413524815350065e-04 -2.671961414247304e-04 3.024549088781470e-04
7.989485180844857e-04 1.616507347029783e-04 5.745660763363247e-04
1.219478607272784e-05 2.943142804667787e-04 -2.092241821394225e-05
2.413524815346735e-04 -2.671961414246193e-04 3.024549088781470e-04
7.989485180843747e-04 1.616507347032003e-04 5.745660763363247e-04
1.219478607272784e-05 2.943142804667787e-04 -2.092241821394225e-05
4.603729065686402e-04 -3.885901346989407e-04 4.731223672873597e-04
4.603729065686402e-04 -3.885901346987186e-04 4.731223672909124e-04
-1.078010805263041e-03 1.828380773809535e-03 -6.975475114998630e-04
8.364503220351538e-03 6.163886271977947e-03 -2.577876403897505e-05
-6.348849349991359e-03 -3.138388773811784e-03 -6.824469654578280e-04
5.706764548134347e-03 7.853400360722240e-03 -7.319875312141733e-04
2.607878617364112e-03 3.030474745168377e-03 -2.022904077776388e-04
-6.348849349991581e-03 -3.138388773811784e-03 -6.824469654560517e-04
5.706764548134236e-03 7.853400360722018e-03 -7.319875312159496e-04
-1.189155299857747e-03 3.683882110549042e-03 -1.983351108895803e-03
8.364503220351427e-03 6.163886271977947e-03 -2.577876404430413e-05
-1.820178729230487e-03 -2.457907024827399e-03 -4.421465369084387e-04
6.670905380489230e-18 0.000000000000000e+00 0.000000000000000e+00
2.607878617364112e-03 3.030474745168377e-03 -2.022904077776388e-04
-2.533162325570326e-03 -8.333267541282385e-03 9.492335016325626e-04
-2.533162325570215e-03 -8.333267541282496e-03 9.492335016290099e-04
5.839619467266077e-03 1.402542977515620e-02 -3.288518358601777e-04
5.839619467266188e-03 1.402542977515620e-02 -3.288518358530723e-04
-1.820178729230515e-03 -2.457907024827399e-03 -4.421465369119915e-04
-7.498389935578498e-05 1.503730339344478e-04 -2.014691774121502e-05
-1.947096505394708e-05 4.762025630751787e-04 4.661443940392473e-04
5.683467763182848e-04 -3.760398840951751e-03 -6.135245018832336e-04
-7.498389935556293e-05 1.503730339345588e-04 -2.014691773410959e-05
-4.790917454258192e-04 1.214674491471668e-03 2.154656444162129e-04
5.683467763182848e-04 -3.760398840951751e-03 -6.135245018867863e-04
-1.316670495019601e-04 1.391205825195141e-03 -1.108380643621842e-04
-7.709552213031046e-05 -9.180946111509991e-04 -5.955879336028147e-05
-1.947096505383605e-05 4.762025630751787e-04 4.661443940392473e-04
-1.316670495019601e-04 1.391205825195252e-03 -1.108380643657370e-04
2.933312083293060e-04 -9.200285264222563e-04 -1.160865484024498e-04
-3.861350491796145e-06 -1.346612273094183e-03 3.565818478001859e-04
-3.861350492018190e-06 -1.346612273094516e-03 3.565818477966332e-04
7.555244535031314e-04 -3.988608098038582e-03 2.926610084550418e-04
7.555244535037975e-04 -3.988608098038471e-03 2.926610084585946e-04
8.102729589423152e-04 -4.299780809748022e-03 3.092603243324277e-04
-7.709552213031046e-05 -9.180946111509991e-04 -5.955879336028147e-05
-5.197440468296399e-05 -2.583172049123394e-03 4.373877616359323e-05
-5.197440468318604e-05 -2.583172049123228e-03 4.373877617069866e-05
2.933312083295281e-04 -9.200285264222563e-04 -1.160865484060025e-04
-4.460859243067272e-04 6.394498477206856e-04 -9.760193394470207e-05
-1.843335519615685e-03 -1.617654582194650e-03 -8.213408260857591e-04
3.093845430857112e-05 5.170237396964206e-04 2.590519170730943e-04
4.230989020888032e-04 4.328325152793688e-04 3.932326198281544e-04
-1.843335519615685e-03 -1.617654582194650e-03 -8.213408260964172e-04
3.093845430868214e-05 5.170237396966426e-04 2.590519170730943e-04
-6.029369967170517e-03 -3.039555493449697e-03 -2.230614358634142e-03
-4.460859243060611e-04 6.394498477213517e-04 -9.760193395536021e-05
-3.143342727890963e-04 9.133809026662387e-05 2.894000053750290e-04
1.473825945563380e-18 0.000000000000000e+00 -1.421085471520200e-14
4.230989020888032e-04 4.328325152793688e-04 3.932326198281544e-04
1.128545848380402e-03 5.519070848944985e-04 2.250469787874465e-04
1.128545848380291e-03 5.519070848947205e-04 2.250469787874465e-04
-7.475630636143982e-04 -2.351798581415876e-04 -2.172376234987894e-04
-7.475630636143982e-04 -2.351798581415876e-04 -2.172376235023421e-04
-3.143342727890686e-04 9.133809026651285e-05 2.894000053750290e-04
6.408561419801728e-05 -3.553654852141430e-04 2.886342453933821e-06
-6.656448915843827e-04 -4.875651025020855e-04 -2.697001849796266e-04
2.918856711100482e-04 9.816935541090976e-04 4.427805144757713e-06
6.408561419812830e-05 -3.553654852141985e-04 2.886342457486535e-06
-2.849086424275421e-04 -1.476184405283909e-03 -3.990535741671408e-04
2.918856711096596e-04 9.816935541094307e-04 4.427805155415854e-06
4.988163001334867e-04 -1.139661241457146e-04 1.285070857157677e-04
4.629805167577494e-05 8.377286343319579e-05 -1.595661620612532e-04
-6.656448915840496e-04 -4.875651025018080e-04 -2.697001849760738e-04
4.988163001330426e-04 -1.139661241461587e-04 1.285070857086623e-04
3.593350802868489e-04 2.096283710747437e-04 2.352389112267872e-04
-4.139906701086105e-04 -4.086665861406935e-04 3.358851775310256e-04
-4.139906701083884e-04 -4.086665861405825e-04 3.358851775345784e-04
1.363187390679421e-05 -3.689027305525672e-04 6.480303466211979e-04