<?xml version="1.0" ?> 
<!-- 
# vtk DataFile Version 3.0
-->
<VTKFile type="UnstructuredGrid" version="0.1" compressor="vtkZLibDataCompressor" byte_order="LittleEndian">
  <UnstructuredGrid>
    <FieldData>
      <DataArray type="Float64" Name="TIME" NumberOfTuples="1" format="ascii">
1.000000010000000e+00 
      </DataArray>
    </FieldData>

    <Piece NumberOfPoints="60" NumberOfCells="0" >
      <Points>
        <DataArray type="Float64" NumberOfComponents="3" format="ascii">
1.000000000000000e+00 0.000000000000000e+00 -7.079632679490000e-02
7.071067811870000e-01 7.071067811870000e-01 7.146018366030000e-01
9.229382397090955e-01 3.822935361201370e-01 3.219027549043409e-01
7.071067811870000e-01 7.071067811870000e-01 7.146018366030000e-01
0.000000000000000e+00 1.000000000000000e+00 1.500000000000000e+00
3.822935361194013e-01 9.229382397077746e-01 1.107300918301373e+00
1.000000000000000e-01 3.000000000000000e-01 2.500000000000000e+00
1.150000000000000e+00 3.000000000000000e-01 3.050000000000000e+00
6.250000000000000e-01 3.000000000000000e-01 2.775000000000000e+00
1.150000000000000e+00 3.000000000000000e-01 3.050000000000000e+00
2.200000000000000e+00 3.000000000000000e-01 3.600000000000000e+00
1.675000000000000e+00 3.000000000000000e-01 3.325000000000000e+00
1.000000000000000e+00 0.000000000000000e+00 4.929203673210000e+00
7.071067811870000e-01 7.071067811870000e-01 5.714601836600000e+00
9.229382397087392e-01 3.822935361199894e-01 5.321902754905291e+00
7.071067811870000e-01 7.071067811870000e-01 5.714601836600000e+00
0.000000000000000e+00 1.000000000000000e+00 6.500000000000000e+00
3.822935361194574e-01 9.229382397079099e-01 6.107300918299873e+00
1.000000000000000e-01 3.000000000000000e-01 7.500000000000000e+00
1.150000000000000e+00 3.000000000000000e-01 8.050000000000001e+00
6.249999999999999e-01 3.000000000000000e-01 7.775000000000000e+00
1.150000000000000e+00 3.000000000000000e-01 8.050000000000001e+00
2.200000000000000e+00 3.000000000000000e-01 8.600000000000000e+00
1.675000000000000e+00 3.000000000000000e-01 8.324999999999999e+00
1.000000000000000e+00 0.000000000000000e+00 9.929203673210001e+00
7.071067811870000e-01 7.071067811870000e-01 1.071460183660000e+01
9.229382397087392e-01 3.822935361199894e-01 1.032190275490529e+01
7.071067811870000e-01 7.071067811870000e-01 1.071460183660000e+01
0.000000000000000e+00 1.000000000000000e+00 1.150000000000000e+01
3.822935361194573e-01 9.229382397079099e-01 1.110730091829987e+01
1.000000000000000e-01 3.000000000000000e-01 1.250000000000000e+01
1.150000000000000e+00 3.000000000000000e-01 1.305000000000000e+01
6.249999999999999e-01 3.000000000000000e-01 1.277500000000000e+01
1.150000000000000e+00 3.000000000000000e-01 1.305000000000000e+01
2.200000000000000e+00 3.000000000000000e-01 1.360000000000000e+01
1.675000000000000e+00 3.000000000000000e-01 1.332500000000000e+01
1.000000000000000e+00 0.000000000000000e+00 1.492920367320000e+01
7.071067811870000e-01 7.071067811870000e-01 1.571460183660000e+01
9.229382397091902e-01 3.822935361201762e-01 1.532190275490029e+01
7.071067811870000e-01 7.071067811870000e-01 1.571460183660000e+01
0.000000000000000e+00 1.000000000000000e+00 1.650000000000000e+01
3.822935361194573e-01 9.229382397079099e-01 1.610730091829987e+01
1.000000000000000e-01 3.000000000000000e-01 1.750000000000000e+01
1.150000000000000e+00 3.000000000000000e-01 1.805000000000000e+01
6.249999999999999e-01 3.000000000000000e-01 1.777500000000000e+01
1.150000000000000e+00 3.000000000000000e-01 1.805000000000000e+01
2.200000000000000e+00 3.000000000000000e-01 1.860000000000000e+01
1.675000000000000e+00 3.000000000000000e-01 1.832500000000000e+01
1.000000000000000e+00 0.000000000000000e+00 1.992920367320000e+01
7.071067811870000e-01 7.071067811870000e-01 2.071460183660000e+01
9.229382397091902e-01 3.822935361201762e-01 2.032190275490029e+01
7.071067811870000e-01 7.071067811870000e-01 2.071460183660000e+01
0.000000000000000e+00 1.000000000000000e+00 2.150000000000000e+01
3.822935361194573e-01 9.229382397079099e-01 2.110730091829987e+01
1.000000000000000e-01 3.000000000000000e-01 2.250000000000000e+01
1.150000000000000e+00 3.000000000000000e-01 2.305000000000000e+01
6.250000000000000e-01 3.000000000000000e-01 2.277500000000000e+01
1.150000000000000e+00 3.000000000000000e-01 2.305000000000000e+01
2.200000000000000e+00 3.000000000000000e-01 2.360000000000000e+01
1.675000000000000e+00 3.000000000000000e-01 2.332500000000000e+01
        </DataArray>
      </Points>

      <Cells>
        <DataArray type="Int32" Name="connectivity" format="ascii">
0 1 2 3 4 5 6 7 8 9 10 11 12 13 14 15 16 17 18 19 20 21 22 23 24 25 26 27 28 29 30 31 32 33 34 35 36 37 38 39 40 41 42 43 44 45 46 47 48 49 50 51 52 53 54 55 56 57 58 59 
        </DataArray>
        <DataArray type="Int32" Name="offsets" format="ascii">

        </DataArray>
        <DataArray type="UInt8" Name="types" format="ascii">

        </DataArray>
      </Cells>

  <PointData>
        <DataArray type="Float64" Name="displacement" NumberOfComponents="3" format="ascii">
2.230992061634272e-01 1.754237234089811e-01 1.392781029757935e-02
-4.840773927256681e-03 5.515411700024442e-02 -8.253185936012652e-03
6.344136201941364e-02 1.245917149643799e-01 -5.618563390796194e-03
-4.840773927256681e-03 5.515411700024442e-02 -8.253185936012652e-03
0.000000000000000e+00 0.000000000000000e+00 0.000000000000000e+00
-1.851488165474791e-02 4.470578412484438e-03 -7.889205674209254e-03
0.000000000000000e+00 0.000000000000000e+00 0.000000000000000e+00
-3.557694386679811e-02 1.526818501594518e-01 1.257128922145112e-02
-1.151603301621518e-02 4.039568491412249e-02 4.280755828782734e-03
-3.557694386679811e-02 1.526818501594518e-01 1.257128922145112e-02
-1.091830325686303e-01 5.416413636816939e-01 -2.942432155880415e-03
-6.548202774408529e-02 3.167558102977920e-01 1.164958932663751e-02
3.431052148119074e-01 3.178624828538347e-01 1.493913006532122e-02
1.399966582031664e-02 1.047656615323390e-01 -7.936043941992210e-03
1.157884525510088e-01 2.121577112876919e-01 -5.020005050619503e-03
1.399966582031664e-02 1.047656615323390e-01 -7.936043941992210e-03
0.000000000000000e+00 0.000000000000000e+00 0.000000000000000e+00
-9.145567725953652e-03 2.659916695255748e-02 -2.242184234990674e-03
0.000000000000000e+00 0.000000000000000e+00 0.000000000000000e+00
-7.224584617232388e-02 2.425342726622975e-01 3.406977240815401e-02
-2.435037477179047e-02 7.052449940172095e-02 1.276932384064899e-02
-7.224584617232388e-02 2.425342726622975e-01 3.406977240815401e-02
-2.114441148358295e-01 7.771367645148981e-01 1.299812737864769e-02
-1.321585789409494e-01 4.777359283005769e-01 3.624665595881993e-02
3.485026025399081e-01 3.270545736403985e-01 1.441120037185684e-02
1.488277806266014e-02 1.086450928337755e-01 -8.401448254167221e-03
1.184704799199258e-01 2.185345195868267e-01 -5.648201317981716e-03
1.488277806266014e-02 1.086450928337755e-01 -8.401448254167221e-03
0.000000000000000e+00 0.000000000000000e+00 0.000000000000000e+00
-9.198758368505922e-03 2.797875030243691e-02 -2.447773341213377e-03
0.000000000000000e+00 0.000000000000000e+00 0.000000000000000e+00
-7.335653717449397e-02 2.471493204927925e-01 3.415953276351580e-02
-2.474999540704126e-02 7.225207334798084e-02 1.286483068868272e-02
-7.335653717449397e-02 2.471493204927925e-01 3.415953276351580e-02
-2.159656402476333e-01 7.881957247268196e-01 1.214291212229845e-02
-1.344722006083954e-01 4.852056449266219e-01 3.599506918105355e-02
1.385393264479269e-01 9.210840269497476e-02 1.565839287974491e-02
7.802641661642795e-04 4.579559489446128e-02 -4.521895556059974e-03
3.699192053530675e-02 7.342226892119297e-02 2.198506006159562e-03
7.802641661642795e-04 4.579559489446128e-02 -4.521895556059974e-03
0.000000000000000e+00 0.000000000000000e+00 0.000000000000000e+00
-1.281669212689546e-02 6.039100932947350e-03 -6.564778557677897e-03
0.000000000000000e+00 0.000000000000000e+00 0.000000000000000e+00
-1.621561057630894e-02 8.623605870260753e-02 8.621731464462101e-03
-6.017185352706789e-03 2.366272663607366e-02 3.066648192923793e-03
-1.621561057630894e-02 8.623605870260753e-02 8.621731464462101e-03
-4.366350841479072e-02 3.156347342349453e-01 3.923991279830119e-03
-2.660285999469392e-02 1.758649554542967e-01 9.757110994126350e-03
3.423060316194806e-01 3.208539615407416e-01 1.426816765465944e-02
1.478123048044377e-02 1.086923123600344e-01 -8.164950401454263e-03
1.168215121897437e-01 2.169561372495621e-01 -5.483990626242274e-03
1.478123048044377e-02 1.086923123600344e-01 -8.164950401454263e-03
0.000000000000000e+00 0.000000000000000e+00 0.000000000000000e+00
-9.552703429570764e-03 2.785971917324748e-02 -2.520784009224286e-03
0.000000000000000e+00 0.000000000000000e+00 0.000000000000000e+00
-7.272754255637137e-02 2.443314106240496e-01 3.418745800697920e-02
-2.461301217892087e-02 7.135058591547044e-02 1.283141132652688e-02
-7.272754255637137e-02 2.443314106240496e-01 3.418745800697920e-02
-2.134494147983719e-01 7.803454191588579e-01 1.447557180540571e-02
-1.331177514400472e-01 4.801716060736659e-01 3.679532492151338e-02
        </DataArray>
        <DataArray type="Float64" Name="lambda" NumberOfComponents="3" format="ascii">
4.754603045504482e-02 2.516700204991334e-02 -5.658271610108446e-03
1.262681032069286e-02 3.059679788349853e-02 1.152958691424908e-03
-1.041416228129529e-03 -1.268221752519219e-02 -4.505810912137959e-03
1.262681032069286e-02 3.059679788349853e-02 1.152958691424908e-03
6.471293732044496e-02 1.401381326907072e-01 2.491903261349217e-02
-3.315912959773599e-03 -1.020744304317025e-02 6.426946054736309e-04
-6.775510743520926e-03 -1.141129212523318e-02 -3.369007393836959e-03
-5.640849729349322e-04 -3.554322891248948e-03 -4.126332383147439e-04
1.028773782354582e-03 1.356652092224754e-03 6.442240710558464e-04
-5.640849729349322e-04 -3.554322891248948e-03 -4.126332383147439e-04
-1.090123248747461e-02 1.143039979861634e-02 -5.281258858380966e-03
4.169140478587465e-03 2.566831722509676e-03 2.240501051983023e-03
3.340194968311980e-02 7.269687949543155e-03 4.943212900745320e-03
4.548795082894494e-03 5.215181104618690e-03 -7.685325898036473e-04
2.360337155569233e-03 -4.402051557044261e-03 -4.976094535506600e-03
4.548795082894494e-03 5.215181104618690e-03 -7.685325898036473e-04
5.082632312385937e-03 9.321239237995198e-03 3.190445311763841e-03
-8.733623882957456e-04 -5.256522955536635e-04 7.864224453518616e-05
-2.047512980513264e-03 1.286172050736453e-03 -2.765645253537571e-04
2.463037310901788e-03 2.546345513976531e-03 3.552041484367535e-03
1.830321586866985e-03 -1.915398224555096e-03 9.848267350256452e-05
2.463037310901788e-03 2.546345513976531e-03 3.552041484367535e-03
-1.716778651456727e-02 1.403635453810953e-02 -8.046815303471318e-03
2.939851829663599e-03 1.368875649049093e-03 7.127390156688424e-04
3.283146152454715e-02 7.292477116896276e-03 5.245412469509833e-03
4.028349573530004e-03 4.989080207468273e-03 -6.861508491886180e-04
2.483886156841441e-03 -4.273332056242697e-03 -4.916298627731640e-03
4.028349573530004e-03 4.989080207468273e-03 -6.861508491886180e-04
4.502195580560794e-03 8.064435059056546e-03 3.084722245784604e-03
-4.891453530284885e-04 -5.481184224568587e-04 -1.299048544355213e-04
-1.591451965209880e-03 8.377929386200621e-04 2.355139781118344e-05
2.362922384876050e-03 2.285015862581615e-03 3.550829688498785e-03
1.932873941648853e-03 -1.805105774508379e-03 1.209186300407037e-04
2.362922384876050e-03 2.285015862581615e-03 3.550829688498785e-03
-1.630714310033943e-02 1.370873635799760e-02 -7.227776650995649e-03
2.816723146971186e-03 1.452111840851750e-03 6.079888527792278e-04
5.009110645833149e-02 1.308767383604378e-02 -2.155840156671125e-03
1.538970572523836e-02 2.097665508258967e-02 1.789691760990869e-03
-4.557901932766316e-03 -6.735892775159288e-03 -2.481173522742304e-03
1.538970572523836e-02 2.097665508258967e-02 1.789691760990869e-03
7.232727002491578e-02 1.501873390747983e-01 2.059783477674356e-02
-2.529410495762135e-03 -7.541341852796249e-03 -2.045034165448817e-03
7.327599386177324e-03 -5.930362743101800e-03 -2.019404160574890e-03
1.291226338644012e-03 3.620012393560400e-04 -6.866350890172403e-04
-6.894732494158108e-04 -5.993321777714423e-05 2.127966897511231e-04
1.291226338644012e-03 3.620012393560400e-04 -6.866350890172403e-04
-1.475991643888002e-03 2.193261698803594e-02 -2.936762916901686e-03
1.797167159616502e-03 2.270616011527124e-04 1.367393326615471e-03
3.341676197547506e-02 6.653413512616883e-03 4.169206167231681e-03
4.177331708795192e-03 4.832685997314839e-03 -1.232095193590070e-03
2.341620482685928e-03 -4.176382968996264e-03 -4.655126080700619e-03
4.177331708795192e-03 4.832685997314839e-03 -1.232095193590070e-03
4.357268710747026e-03 8.280301427704707e-03 3.061486586159245e-03
-3.484286932998701e-04 -4.358870647226976e-04 3.426229350666874e-05
-2.065815535102827e-03 8.124103343238125e-04 -8.048789800566674e-04
2.303570698884079e-03 2.542482279037791e-03 3.338445911682797e-03
2.024636820556200e-03 -1.911137970732479e-03 2.384212616066086e-04
2.303570698884079e-03 2.542482279037791e-03 3.338445911682797e-03
-1.727618252519851e-02 1.412103713894162e-02 -8.493436518708904e-03
2.907871621254556e-03 1.344871249598055e-03 7.530064663223033e-04
        </DataArray>
        <DataArray type="Float64" Name="uid_0_pair_beam_id" format="ascii">
2.670000000000000e+02
2.670000000000000e+02
2.670000000000000e+02
2.680000000000000e+02
2.680000000000000e+02
2.680000000000000e+02
2.690000000000000e+02
2.690000000000000e+02
2.690000000000000e+02
2.700000000000000e+02
2.700000000000000e+02
2.700000000000000e+02
2.710000000000000e+02
2.710000000000000e+02
2.710000000000000e+02
2.720000000000000e+02
2.720000000000000e+02
2.720000000000000e+02
2.730000000000000e+02
2.730000000000000e+02
2.730000000000000e+02
2.740000000000000e+02
2.740000000000000e+02
2.740000000000000e+02
2.750000000000000e+02
2.750000000000000e+02
2.750000000000000e+02
2.760000000000000e+02
2.760000000000000e+02
2.760000000000000e+02
2.770000000000000e+02
2.770000000000000e+02
2.770000000000000e+02
2.780000000000000e+02
2.780000000000000e+02
2.780000000000000e+02
2.790000000000000e+02
2.790000000000000e+02
2.790000000000000e+02
2.800000000000000e+02
2.800000000000000e+02
2.800000000000000e+02
2.810000000000000e+02
2.810000000000000e+02
2.810000000000000e+02
2.820000000000000e+02
2.820000000000000e+02
2.820000000000000e+02
2.830000000000000e+02
2.830000000000000e+02
2.830000000000000e+02
2.840000000000000e+02
2.840000000000000e+02
2.840000000000000e+02
2.850000000000000e+02
2.850000000000000e+02
2.850000000000000e+02
2.860000000000000e+02
2.860000000000000e+02
2.860000000000000e+02
        </DataArray>
        <DataArray type="Float64" Name="uid_1_pair_solid_id" format="ascii">
0.000000000000000e+00
0.000000000000000e+00
0.000000000000000e+00
0.000000000000000e+00
0.000000000000000e+00
0.000000000000000e+00
9.000000000000000e+00
9.000000000000000e+00
9.000000000000000e+00
9.000000000000000e+00
9.000000000000000e+00
9.000000000000000e+00
1.700000000000000e+01
1.700000000000000e+01
1.700000000000000e+01
1.700000000000000e+01
1.700000000000000e+01
1.700000000000000e+01
2.600000000000000e+01
2.600000000000000e+01
2.600000000000000e+01
2.600000000000000e+01
2.600000000000000e+01
2.600000000000000e+01
3.400000000000000e+01
3.400000000000000e+01
3.400000000000000e+01
3.400000000000000e+01
3.400000000000000e+01
3.400000000000000e+01
4.300000000000000e+01
4.300000000000000e+01
4.300000000000000e+01
4.300000000000000e+01
4.300000000000000e+01
4.300000000000000e+01
5.100000000000000e+01
5.100000000000000e+01
5.100000000000000e+01
5.100000000000000e+01
5.100000000000000e+01
5.100000000000000e+01
9.900000000000000e+01
9.900000000000000e+01
9.900000000000000e+01
9.900000000000000e+01
9.900000000000000e+01
9.900000000000000e+01
1.590000000000000e+02
1.590000000000000e+02
1.590000000000000e+02
1.590000000000000e+02
1.590000000000000e+02
1.590000000000000e+02
2.070000000000000e+02
2.070000000000000e+02
2.070000000000000e+02
2.070000000000000e+02
2.070000000000000e+02
2.070000000000000e+02
        </DataArray>
      </PointData>

    </Piece>
  </UnstructuredGrid>
</VTKFile>
