<?xml version="1.0" ?> 
<!-- 
# vtk DataFile Version 3.0
-->
<VTKFile type="UnstructuredGrid" version="0.1" compressor="vtkZLibDataCompressor" byte_order="LittleEndian">
  <UnstructuredGrid>
    <FieldData>
      <DataArray type="Float64" Name="TIME" NumberOfTuples="1" format="ascii">
1.000000010000000e+00 
      </DataArray>
    </FieldData>

    <Piece NumberOfPoints="432" NumberOfCells="0" >
      <Points>
        <DataArray type="Float64" NumberOfComponents="3" format="ascii">
9.961508145972252e-01 8.592086226024845e-02 1.528071566903062e-02
9.887897073711956e-01 1.468037178864243e-01 7.666788650934654e-02
9.698962622537908e-01 2.404644815942518e-01 1.723189298689200e-01
9.380536336930722e-01 3.436060835709402e-01 2.803550731636581e-01
9.009239073701820e-01 4.317150572693559e-01 3.760244732140129e-01
8.728306729741147e-01 4.862862962232773e-01 4.374325130705180e-01
8.645372169543546e-01 5.009833640985419e-01 4.543160180413865e-01
8.613235470217895e-01 5.065291381708883e-01 4.607288499074974e-01
8.562476935757146e-01 5.151277191794387e-01 4.707191468495250e-01
8.504143017171248e-01 5.247770947824838e-01 4.820011842343861e-01
8.451597461372596e-01 5.332663647181585e-01 4.919911575819921e-01
8.417429166174110e-01 5.386878672332490e-01 4.984036215660428e-01
8.369740717620143e-01 5.461294004394486e-01 5.072479512151478e-01
8.208190763326847e-01 5.703223022532734e-01 5.363609104801736e-01
7.942732942844649e-01 6.070417183346181e-01 5.817116896770539e-01
7.623155153791229e-01 6.469935789125921e-01 6.329207197335958e-01
7.323040534311026e-01 6.809330643160265e-01 6.782591714366593e-01
7.122090597310894e-01 7.019655697919733e-01 7.073581160477863e-01
7.008280738556409e-01 7.133275282405195e-01 7.234410182242363e-01
6.750424117560742e-01 7.377186261707828e-01 7.589496380164499e-01
6.331455164199606e-01 7.737812736017835e-01 8.142762118776878e-01
5.834756456364070e-01 8.116008737485321e-01 8.767680166441256e-01
5.375809239492999e-01 8.424444628623822e-01 9.321114259419293e-01
5.072502867323505e-01 8.609022139923966e-01 9.676391852948852e-01
4.989108780625087e-01 8.657262322388349e-01 9.772781523082409e-01
4.961413847090663e-01 8.673050550132074e-01 9.804675735317165e-01
4.918169520841263e-01 8.697474089375292e-01 9.854363280879123e-01
4.869189222602973e-01 8.724802717602733e-01 9.910476635530109e-01
4.825691589487003e-01 8.748777159706708e-01 9.960164798060829e-01
4.797708681112122e-01 8.764054826174402e-01 9.992059711703659e-01
4.641739722219643e-01 8.847150706998458e-01 1.016885236121368e+00
4.030608978006651e-01 9.140673022005500e-01 1.084712850232482e+00
3.043552951980907e-01 9.515847064974028e-01 1.190380902982318e+00
1.889632452847260e-01 9.814319600937836e-01 1.309702054430989e+00
8.451378512843108e-02 9.962755514098970e-01 1.415336657292568e+00
1.687073982608985e-02 9.998507964269235e-01 1.483126243511407e+00
1.135060971593723e-01 2.999999999999999e-01 2.507074622321568e+00
1.677581227067583e-01 2.999999999999999e-01 2.535492349989220e+00
2.522761627833781e-01 3.000000000000000e-01 2.579763704315047e+00
3.477238372166552e-01 2.999999999999999e-01 2.629760105208663e+00
4.322418772932615e-01 3.000000000000000e-01 2.674031459534515e+00
4.864939028406323e-01 3.000000000000000e-01 2.702449187202197e+00
5.168826214492115e-01 3.000000000000000e-01 2.718367087425746e+00
5.846976533834305e-01 3.000000000000000e-01 2.753889247010356e+00
6.903452034791921e-01 2.999999999999999e-01 2.809228439917691e+00
8.096547965207874e-01 2.999999999999999e-01 2.871723941034747e+00
9.153023466165575e-01 3.000000000000000e-01 2.927063133942068e+00
9.831173785507854e-01 3.000000000000000e-01 2.962585293526660e+00
1.057768500458407e+00 3.000000000000000e-01 3.001688262144921e+00
1.070715006554950e+00 2.999999999999999e-01 3.008469765338345e+00
1.090884084300523e+00 3.000000000000000e-01 3.019034520347923e+00
1.113661370244847e+00 3.000000000000000e-01 3.030965479652083e+00
1.133830447990420e+00 3.000000000000000e-01 3.041530234661658e+00
1.146776954086965e+00 2.999999999999999e-01 3.048311737855079e+00
1.001841740521729e+00 3.000000000000000e-01 2.972393292654295e+00
1.009239744005451e+00 3.000000000000000e-01 2.976268437336243e+00
1.020764931288608e+00 3.000000000000000e-01 2.982305440198846e+00
1.033780523256763e+00 2.999999999999999e-01 2.989123131229781e+00
1.045305710539920e+00 3.000000000000000e-01 2.995160134092385e+00
1.052703714023642e+00 3.000000000000000e-01 2.999035278774333e+00
1.161817835014451e+00 3.000000000000000e-01 3.056190294531372e+00
1.209288357368413e+00 3.000000000000000e-01 3.081055806240567e+00
1.283241642435455e+00 3.000000000000000e-01 3.119793241275662e+00
1.366758357564573e+00 3.000000000000000e-01 3.163540092057572e+00
1.440711642631604e+00 3.000000000000000e-01 3.202277527092688e+00
1.488182164985553e+00 3.000000000000000e-01 3.227143038801907e+00
1.516882621449212e+00 3.000000000000000e-01 3.242176611235258e+00
1.584697653383433e+00 3.000000000000000e-01 3.277698770819866e+00
1.690345203479196e+00 3.000000000000000e-01 3.333037963727203e+00
1.809654796520792e+00 3.000000000000000e-01 3.395533464844262e+00
1.915302346616560e+00 3.000000000000000e-01 3.450872657751589e+00
1.983117378550786e+00 3.000000000000000e-01 3.486394817336187e+00
9.961508145975779e-01 8.592086225564063e-02 5.015280715669051e+00
9.887897073716787e-01 1.468037178823039e-01 5.076667886509384e+00
9.698962622543036e-01 2.404644815910580e-01 5.172318929868813e+00
9.380536336934090e-01 3.436060835689309e-01 5.280355073163236e+00
9.009239073702221e-01 4.317150572684103e-01 5.376024473213271e+00
8.728306729739144e-01 4.862862962229748e-01 5.437432513069590e+00
8.645372169540647e-01 5.009833640984385e-01 5.454316018040451e+00
8.613235470213982e-01 5.065291381709724e-01 5.460728849906690e+00
8.562476935751622e-01 5.151277191798120e-01 5.470719146848922e+00
8.504143017163849e-01 5.247770947831786e-01 5.482001184234013e+00
8.451597461363493e-01 5.332663647191331e-01 5.491991157581827e+00
8.417429166163889e-01 5.386878672344007e-01 5.498403621566010e+00
8.369740717609830e-01 5.461294004406132e-01 5.507247951215027e+00
8.208190763317383e-01 5.703223022543119e-01 5.536360910479583e+00
7.942732942836876e-01 6.070417183354412e-01 5.581711689675767e+00
7.623155153785933e-01 6.469935789131366e-01 5.632920719731584e+00
7.323040534308457e-01 6.809330643162858e-01 5.678259171434071e+00
7.122090597310354e-01 7.019655697920274e-01 5.707358116044865e+00
7.008280738556323e-01 7.133275282405286e-01 5.723441018221251e+00
6.750424117560395e-01 7.377186261708233e-01 5.758949638013529e+00
6.331455164199137e-01 7.737812736018588e-01 5.814276211874900e+00
5.834756456363795e-01 8.116008737486285e-01 5.876768016641527e+00
5.375809239493141e-01 8.424444628624845e-01 5.932111425939527e+00
5.072502867324002e-01 8.609022139924971e-01 5.967639185292620e+00
4.989108780625064e-01 8.657262322389699e-01 5.977278152306085e+00
4.961413847088160e-01 8.673050550134851e-01 5.980467573529864e+00
4.918169520834873e-01 8.697474089380252e-01 5.985436328086531e+00
4.869189222592172e-01 8.724802717610116e-01 5.991047663552161e+00
4.825691589472274e-01 8.748777159716193e-01 5.996016479805704e+00
4.797708681094859e-01 8.764054826185215e-01 5.999205971170290e+00
4.641739722202320e-01 8.847150707008976e-01 6.016885236121376e+00
4.030608977991809e-01 9.140673022013622e-01 6.084712850232536e+00
3.043552951970307e-01 9.515847064978846e-01 6.190380902982448e+00
1.889632452841438e-01 9.814319600939788e-01 6.309702054431162e+00
8.451378512821399e-02 9.962755514099378e-01 6.415336657292694e+00
1.687073982605329e-02 9.998507964269251e-01 6.483126243511438e+00
1.135060971593723e-01 2.999999999999999e-01 7.507074622321567e+00
1.677581227067584e-01 2.999999999999999e-01 7.535492349989219e+00
2.522761627833782e-01 3.000000000000000e-01 7.579763704315047e+00
3.477238372166552e-01 3.000000000000000e-01 7.629760105208663e+00
4.322418772932615e-01 3.000000000000000e-01 7.674031459534515e+00
4.864939028406323e-01 3.000000000000000e-01 7.702449187202197e+00
5.168826214492115e-01 3.000000000000000e-01 7.718367087425746e+00
5.846976533834306e-01 3.000000000000000e-01 7.753889247010356e+00
6.903452034791924e-01 3.000000000000000e-01 7.809228439917693e+00
8.096547965207879e-01 3.000000000000000e-01 7.871723941034748e+00
9.153023466165575e-01 3.000000000000000e-01 7.927063133942069e+00
9.831173785507861e-01 3.000000000000000e-01 7.962585293526661e+00
1.057768500458404e+00 3.000000000000000e-01 8.001688262144921e+00
1.070715006554948e+00 3.000000000000000e-01 8.008469765338344e+00
1.090884084300521e+00 3.000000000000000e-01 8.019034520347923e+00
1.113661370244846e+00 3.000000000000000e-01 8.030965479652084e+00
1.133830447990420e+00 3.000000000000000e-01 8.041530234661657e+00
1.146776954086965e+00 3.000000000000000e-01 8.048311737855082e+00
1.001841740521729e+00 2.999999999999999e-01 7.972393292654295e+00
1.009239744005451e+00 3.000000000000000e-01 7.976268437336243e+00
1.020764931288607e+00 3.000000000000000e-01 7.982305440198846e+00
1.033780523256761e+00 3.000000000000000e-01 7.989123131229781e+00
1.045305710539918e+00 2.999999999999999e-01 7.995160134092385e+00
1.052703714023640e+00 3.000000000000000e-01 7.999035278774334e+00
1.161817835014451e+00 3.000000000000000e-01 8.056190294531373e+00
1.209288357368413e+00 3.000000000000000e-01 8.081055806240567e+00
1.283241642435455e+00 3.000000000000000e-01 8.119793241275664e+00
1.366758357564573e+00 3.000000000000000e-01 8.163540092057572e+00
1.440711642631603e+00 3.000000000000000e-01 8.202277527092688e+00
1.488182164985553e+00 3.000000000000000e-01 8.227143038801907e+00
1.516882621449212e+00 3.000000000000000e-01 8.242176611235257e+00
1.584697653383433e+00 3.000000000000000e-01 8.277698770819866e+00
1.690345203479196e+00 2.999999999999999e-01 8.333037963727202e+00
1.809654796520792e+00 3.000000000000000e-01 8.395533464844263e+00
1.915302346616560e+00 3.000000000000000e-01 8.450872657751589e+00
1.983117378550787e+00 3.000000000000000e-01 8.486394817336187e+00
[...]
  <PointData>
        <DataArray type="Float64" Name="displacement" NumberOfComponents="3" format="ascii">
1.775237351141000e-01 1.691451723336163e-01 6.029579830163959e-03
1.489834276670426e-01 1.626050014027766e-01 1.897604570229749e-03
1.105379008055882e-01 1.496414299437285e-01 -2.480686799076010e-03
7.506548002359825e-02 1.319719051282937e-01 -5.093574043107729e-03
4.982283858232972e-02 1.146773054342590e-01 -6.026295566740947e-03
3.629238410136926e-02 1.032133549711233e-01 -6.241134903577084e-03
3.290429369326353e-02 1.000524150979220e-01 -6.274543130814214e-03
3.165303871283420e-02 9.885301817759584e-02 -6.285815252976445e-03
2.974203786194973e-02 9.698682598579655e-02 -6.302460301910173e-03
2.763901962493009e-02 9.488388189051244e-02 -6.320695730615222e-03
2.582462602107738e-02 9.302697672010163e-02 -6.337123990403315e-03
2.468320010658742e-02 9.183813785743544e-02 -6.348149653318147e-03
2.313817597614587e-02 9.020301067108161e-02 -6.364372545129116e-03
1.828487952818314e-02 8.486673681931434e-02 -6.431841798339111e-03
1.139327835934056e-02 7.674483582194702e-02 -6.612930930161576e-03
4.498172579473381e-03 6.796316524636981e-02 -7.001604152076735e-03
-9.137789920661277e-04 6.064314691571238e-02 -7.581729799957526e-03
-4.084918684891803e-03 5.621850264644335e-02 -8.102848330846291e-03
-5.738933358051423e-03 5.386397948605726e-02 -8.436250658762967e-03
-9.023549223917349e-03 4.867579962561441e-02 -9.060214733101590e-03
-1.315439127110851e-02 4.064291813791887e-02 -9.697532441100942e-03
-1.647616660640816e-02 3.179818231542397e-02 -9.973472101940439e-03
-1.832920563590146e-02 2.432137587977834e-02 -9.871293550801852e-03
-1.902427480092994e-02 1.976537637262576e-02 -9.654552751517609e-03
-1.915009760354541e-02 1.856812294775101e-02 -9.577169164028398e-03
-1.918601062887665e-02 1.817588399227654e-02 -9.549899131077511e-03
-1.923635644902677e-02 1.756880049454412e-02 -9.505795933353212e-03
-1.928508102693383e-02 1.688914675221675e-02 -9.453650716435336e-03
-1.932109865998100e-02 1.629268747406998e-02 -9.405439297343610e-03
-1.934072252011532e-02 1.591252678548771e-02 -9.373498785424261e-03
-1.940078324889194e-02 1.384499319742216e-02 -9.182758544318048e-03
-1.891150329879826e-02 6.606678070523953e-03 -8.256842726046543e-03
-1.618779901492390e-02 -1.998984137557946e-03 -6.344742838648720e-03
-1.094235979692926e-02 -6.733413616194950e-03 -3.820744759229777e-03
-5.079617333971262e-03 -5.439835643412327e-03 -1.586046583564205e-03
-1.021685530626485e-03 -1.424085097387340e-03 -2.933811707979128e-04
-1.297848705597709e-04 5.538542250360656e-05 -7.005054482878137e-05
-7.418704614787219e-04 8.208319229842664e-04 -2.250594512043236e-04
-1.982686476668105e-03 3.725014450373432e-03 -9.574674668266780e-05
-3.799471026084966e-03 9.465099066929494e-03 5.203452538098396e-04
-5.770943186010513e-03 1.667992824056397e-02 1.409124409943452e-03
-7.213683664269332e-03 2.234598322849052e-02 2.117523721437919e-03
-8.081816155418142e-03 2.586828959243909e-02 2.553542505862261e-03
-1.017315564807764e-02 3.461925403467420e-02 3.609670568908818e-03
-1.385022206159869e-02 5.065976006652556e-02 5.415915761606716e-03
-1.860630731644874e-02 7.220966263757533e-02 7.548845515359393e-03
-2.334201670371361e-02 9.424267609210157e-02 9.377409921931257e-03
-2.663688670305975e-02 1.098062918942487e-01 1.045891184136671e-02
-3.049104950713821e-02 1.281926588229428e-01 1.151814966269304e-02
-3.118345904921860e-02 1.315130120448381e-01 1.168465234556848e-02
-3.227618689732292e-02 1.367624269407873e-01 1.193260877686830e-02
-3.353071244133754e-02 1.428023947265412e-01 1.219489162340270e-02
-3.465965559390938e-02 1.482490190473320e-01 1.241044131037983e-02
-3.539323692366159e-02 1.517935720843581e-01 1.254010201122435e-02
-2.758135750674340e-02 1.142956395388111e-01 1.073916632358252e-02
-2.795863643650465e-02 1.160920816190628e-01 1.084737612452980e-02
-2.855102781328944e-02 1.189162407700705e-01 1.101296218510850e-02
-2.922680330522365e-02 1.221428720458407e-01 1.119539483199361e-02
-2.983118473003277e-02 1.250328995880318e-01 1.135270854733372e-02
-3.022209468454129e-02 1.269042249104921e-01 1.145151383693666e-02
-3.624957641287097e-02 1.559500924333577e-01 1.268202544578800e-02
-3.892020704177912e-02 1.692246342586808e-01 1.306975623338014e-02
-4.300980267820798e-02 1.904184893052683e-01 1.348808028590343e-02
-4.758912711790675e-02 2.152099033715859e-01 1.368041468695536e-02
-5.167416844130335e-02 2.380256040966294e-01 1.359461576987631e-02
-5.433962144677595e-02 2.531439599362815e-01 1.340922852987392e-02
-5.597543655800474e-02 2.624765530528574e-01 1.324673436623147e-02
-5.993600621518258e-02 2.851397902616141e-01 1.270902845044075e-02
-6.646212460236356e-02 3.223024985800476e-01 1.142971904525014e-02
-7.454237312965395e-02 3.672938878561606e-01 9.314572257037579e-03
-8.251496539890346e-02 4.101145252381070e-01 6.824393293489273e-03
-8.811997561571472e-02 4.392100445301494e-01 4.910096317965351e-03
2.796325793429535e-01 2.956112390068752e-01 8.540694564024953e-03
2.393983816009488e-01 2.793340761459380e-01 4.739928951499550e-03
1.844773014022242e-01 2.534476831316207e-01 -2.985219659112914e-05
1.329065141247389e-01 2.236866999655934e-01 -3.908088323958836e-03
9.558584825258820e-02 1.971139921455078e-01 -6.184446683965561e-03
7.536088506626271e-02 1.800565843611924e-01 -7.150535766289323e-03
7.027546058623668e-02 1.753763249498994e-01 -7.355320643902097e-03
6.839560531087185e-02 1.736002340687222e-01 -7.426613961882822e-03
6.552294674579828e-02 1.708353202042980e-01 -7.530726483062189e-03
6.235967506523632e-02 1.677160940922500e-01 -7.638320860036352e-03
5.962920004256855e-02 1.649571971514383e-01 -7.724958591949438e-03
5.791098777157655e-02 1.631879466794488e-01 -7.776385493676763e-03
5.558482738378767e-02 1.607499946504559e-01 -7.842050311412052e-03
4.827774560692699e-02 1.527456107922338e-01 -8.016572933270183e-03
3.792070985385643e-02 1.403516581074471e-01 -8.169788652171661e-03
2.763061118133869e-02 1.264924574643183e-01 -8.187980887859325e-03
1.966696889326935e-02 1.143683582093441e-01 -8.085944100989728e-03
1.508084415393307e-02 1.066707603433484e-01 -7.970279959959470e-03
1.271699220968459e-02 1.024562293683788e-01 -7.889730957828078e-03
8.002760156928468e-03 9.343068811051458e-02 -7.640698653686329e-03
1.979061391487291e-03 8.017468891583424e-02 -7.074536319169766e-03
-3.063608865092493e-03 6.639088747000488e-02 -6.225544145745943e-03
-6.144339227916240e-03 5.524392336082662e-02 -5.339524039697174e-03
-7.512823620117348e-03 4.861606302847632e-02 -4.726857729204781e-03
-7.808708176396895e-03 4.688934548455703e-02 -4.556707814259653e-03
-7.899832371958682e-03 4.632472480899996e-02 -4.500127906615248e-03
-8.035187026559643e-03 4.545178242110626e-02 -4.411738937776022e-03
-8.178496661781054e-03 4.447572471481842e-02 -4.311599018897105e-03
-8.297066578985934e-03 4.362009252559751e-02 -4.222679187719791e-03
-8.369108851743190e-03 4.307515114957394e-02 -4.165495763089666e-03
-8.712227897323011e-03 4.011544988896742e-02 -3.847464837266834e-03
-9.224283830641000e-03 2.972100059739324e-02 -2.633949199814190e-03
-8.019115826295109e-03 1.658758426846862e-02 -9.235755129193279e-04
-4.934901436709854e-03 6.292113191581628e-03 3.868015220804821e-04
-1.888051807633337e-03 1.247367276029365e-03 6.397555868371541e-04
-3.063706889500396e-04 4.861648005172192e-05 1.963868734851104e-04
-2.128861563104462e-04 5.576618393493549e-05 -6.577366608162549e-05
-1.315887490226847e-03 1.329772579972355e-03 -5.272040545012402e-05
-3.795518469826731e-03 6.543219483367779e-03 7.805447772133434e-04
-7.644198128094581e-03 1.688603375356668e-02 2.750695714866858e-03
-1.191394257215872e-02 2.971606819242045e-02 5.245083609505485e-03
-1.505205509875124e-02 3.964908020520308e-02 7.146603434216914e-03
-1.693839803425168e-02 4.576330490420338e-02 8.296881796861832e-03
-2.146400215492072e-02 6.076366026317453e-02 1.104357815030532e-02
-2.932227172820279e-02 8.760967228684113e-02 1.566730514233861e-02
-3.924999831344311e-02 1.224859303402129e-01 2.107845473550096e-02
-4.884353936189911e-02 1.568710436072609e-01 2.572244609836449e-02
-5.534190692553520e-02 1.804423133957900e-01 2.849218023611755e-02
-6.275933120222399e-02 2.075660208285928e-01 3.124423749844318e-02
-6.407094537469815e-02 2.123834563141963e-01 3.168278709039285e-02
-6.612795065577326e-02 2.199503606197857e-01 3.234029488544543e-02
-6.847007853557718e-02 2.285827759593906e-01 3.304299756425877e-02
-7.056003414939838e-02 2.363000046895232e-01 3.362776928921107e-02
-7.190910828868780e-02 2.412883382354971e-01 3.398362803875266e-02
-5.717788782439570e-02 1.871359481201065e-01 2.921533376861252e-02
-5.790796007107635e-02 1.898014820000269e-01 2.949536263737151e-02
-5.905046410219528e-02 1.939770598410158e-01 2.992486325760968e-02
-6.034807334228276e-02 1.987256048794303e-01 3.039961011998660e-02
-6.150344267725694e-02 2.029589197842169e-01 3.081046810050569e-02
-6.224814099339770e-02 2.056900927127780e-01 3.106930286871634e-02
-7.348258617816161e-02 2.471219232454523e-01 3.437808798641662e-02
-7.848124934994205e-02 2.658779406929661e-01 3.550045580399797e-02
-8.638625001348532e-02 2.961442415178597e-01 3.687469352958317e-02
-9.552920581423119e-02 3.318572750769000e-01 3.786975603791731e-02
-1.038595416713448e-01 3.648378981522608e-01 3.824901961665184e-02
-1.093417520764470e-01 3.866797242382279e-01 3.824023956965661e-02
-1.127127408676849e-01 4.001398864338622e-01 3.813820404714363e-02
-1.208621203927045e-01 4.327067811106530e-01 3.760445761641940e-02
-1.341332220275449e-01 4.855766079085815e-01 3.594154259836024e-02
-1.500894986224688e-01 5.484090535298647e-01 3.282046463103683e-02
-1.652029952967400e-01 6.068137424508990e-01 2.893053803670043e-02
-1.754469229275133e-01 6.456730091366464e-01 2.586498774266133e-02
2.842845349699470e-01 3.041047965527229e-01 7.921768071126323e-03
2.435789187345784e-01 2.873639367970310e-01 4.085386587760809e-03
1.880089069367242e-01 2.608014633151945e-01 -7.005381790694543e-04
1.358078521938312e-01 2.303277251532688e-01 -4.554071825801032e-03
9.799731711370530e-02 2.031517639285751e-01 -6.785222385678580e-03
7.748176735277224e-02 1.857134535381367e-01 -7.717179268849961e-03
7.231882475240736e-02 1.809286592888715e-01 -7.912457487961433e-03
7.040974528795230e-02 1.791128475122667e-01 -7.980157919202924e-03
6.749177898238989e-02 1.762860209034971e-01 -8.078706707348005e-03
6.427763691702160e-02 1.730968087339603e-01 -8.180083722669096e-03
6.150235336423127e-02 1.702758610839916e-01 -8.261291079435296e-03
5.975548443722667e-02 1.684667328696834e-01 -8.309276703887036e-03
5.738992174010804e-02 1.659737082483282e-01 -8.370260744229086e-03
4.995394866045944e-02 1.577873111260195e-01 -8.530036063756796e-03
3.939751381449574e-02 1.451067686475028e-01 -8.663006116275795e-03
2.888186706929874e-02 1.309176531182772e-01 -8.663896652288727e-03
2.071577209510911e-02 1.184940519334056e-01 -8.553029921989364e-03
1.599728454021299e-02 1.105997614920068e-01 -8.435596575276705e-03
1.355987249881996e-02 1.062750263749501e-01 -8.355165638297635e-03
8.694643142512781e-03 9.700627572784593e-02 -8.102175634517650e-03
2.467986203104955e-03 8.337402185015608e-02 -7.518063294041255e-03
-2.760153181686431e-03 6.917259404226028e-02 -6.634316361946446e-03
-5.969924682843075e-03 5.766569977668945e-02 -5.707471537750308e-03
-7.405372941870270e-03 5.081318878195829e-02 -5.064842146548898e-03
-7.717422165097743e-03 4.902651768763444e-02 -4.886164076252086e-03
-7.813713013818835e-03 4.844215865571777e-02 -4.826729670023511e-03
-7.956938630410304e-03 4.753856698404579e-02 -4.733863160018004e-03
-8.108878865196734e-03 4.652804642801356e-02 -4.628623897620088e-03
-8.234865012471504e-03 4.564203292475999e-02 -4.535152771458328e-03
-8.311556971145551e-03 4.507765783688067e-02 -4.475031000362506e-03
-8.678907929311752e-03 4.201123042455501e-02 -4.140497210304517e-03
-9.261316971385214e-03 3.122450344327343e-02 -2.861539438722360e-03
-8.105246228755747e-03 1.754486116039122e-02 -1.051089384670689e-03
-5.012471278150910e-03 6.751389680783815e-03 3.502526727565680e-04
-1.925967510350124e-03 1.394737075709473e-03 6.449217818200736e-04
-3.137414445235770e-04 7.009715542993789e-05 2.006464578361289e-04
-2.149240965644977e-04 5.836253842828043e-05 -6.501033807992940e-05
-1.331516264057198e-03 1.371476627422041e-03 -4.729423368488028e-05
-3.848481846032592e-03 6.730537196038722e-03 7.975904198769257e-04
-7.760555821482829e-03 1.734648249749254e-02 2.785577512719684e-03
-1.210279776222561e-02 3.049926923977914e-02 5.298268987022681e-03
-1.529447646540111e-02 4.067277105477324e-02 7.212050561840044e-03
-1.721296209163109e-02 4.693142632328895e-02 8.369192364231282e-03
-2.181521609308801e-02 6.227539201916710e-02 1.113077242369265e-02
-2.980417340862407e-02 8.970107384197129e-02 1.577495021511588e-02
-3.989124096619823e-02 1.252669697686735e-01 2.120193673379411e-02
-4.963152234848101e-02 1.602637803577816e-01 2.585027331696921e-02
-5.622478936726405e-02 1.842150713430137e-01 2.861658134693101e-02
-6.374571942857776e-02 2.117356276067329e-01 3.135815611096682e-02
-6.507507509307886e-02 2.166189245203251e-01 3.179409920856280e-02
-6.715955263379847e-02 2.242864134381099e-01 3.244705221229793e-02
-6.953242795124170e-02 2.330292545282178e-01 3.314386468880492e-02
-7.164933132063789e-02 2.408412521028180e-01 3.372273714544960e-02
-7.301555066343735e-02 2.458888353539865e-01 3.407446091643251e-02
-5.808688154512409e-02 1.910107063500291e-01 2.933780389848728e-02
-5.882724847329679e-02 1.937161222476503e-01 2.961694485057009e-02
-5.998576067619343e-02 1.979533279823865e-01 3.004491775743290e-02
-6.130139855883510e-02 2.027706942458292e-01 3.051772357262372e-02
-6.247268193501332e-02 2.070642234758837e-01 3.092666748703898e-02
-6.322756791921469e-02 2.098336713904738e-01 3.118417510901317e-02
-7.460910215365013e-02 2.517904549864858e-01 3.446379182546089e-02
-7.967659517110581e-02 2.707668706711477e-01 3.556802749587717e-02
-8.770557964849623e-02 3.013937564656970e-01 3.690829515115368e-02
-9.701300758508569e-02 3.375380883592744e-01 3.785693133696988e-02
-1.055105525468780e-01 3.709207949661980e-01 3.818826230071792e-02
-1.111107339693875e-01 3.930301974093001e-01 3.814547662617152e-02
-1.145570725693870e-01 4.066555899029042e-01 3.802169213799189e-02
-1.228965142525937e-01 4.396228404737990e-01 3.743310629185714e-02
-1.364972526096624e-01 4.931426205973171e-01 3.567553563413917e-02
-1.528746741977118e-01 5.567441495818739e-01 3.243498008698786e-02
-1.684041286767837e-01 6.158575563736850e-01 2.842904212839770e-02
-1.789362535866685e-01 6.551839861062765e-01 2.528437391648986e-02
3.164489108861235e-02 7.061285716274218e-02 1.637014489007882e-03
2.824862674859396e-02 6.860113901125298e-02 1.270005775650063e-03
2.346974537339941e-02 6.542474576825452e-02 7.186265134588865e-04
1.870799600434414e-02 6.181358910702750e-02 8.774758694940488e-05
1.493905683882124e-02 5.863275663768541e-02 -5.161832099069841e-04
1.269095697868627e-02 5.661599170039266e-02 -9.429357431454122e-04
2.937109957190875e-03 4.761081647454690e-02 -3.686260958660981e-03
2.637013440064728e-03 4.735082141797309e-02 -3.797626142313604e-03
2.168040552938733e-03 4.694906995410464e-02 -3.974889968713313e-03
1.635908868328317e-03 4.650030676790362e-02 -4.180723521193030e-03
1.162110755171031e-03 4.610743133748307e-02 -4.368111511455552e-03
8.565286240334036e-04 4.585752710217583e-02 -4.490986467873270e-03
1.182256871498732e-02 5.581811939733128e-02 -1.124496328564817e-03
1.053461270539180e-02 5.462050924565287e-02 -1.413250175335889e-03
8.579806209998875e-03 5.278426643064249e-02 -1.900599238883416e-03
6.422449882118930e-03 5.076218368659180e-02 -2.514324706027082e-03
4.531183190551791e-03 4.902578529215285e-02 -3.122295454682344e-03
3.315463141700059e-03 4.794168442458668e-02 -3.548179459020417e-03
1.079996733548325e-01 9.018518143147948e-02 1.101534236609325e-02
9.278171451045636e-02 8.845517859421195e-02 8.866182378767462e-03
7.251226771607810e-02 8.500122723422604e-02 6.210547818630729e-03
5.406333926000473e-02 8.018612138892306e-02 4.029020783104187e-03
4.106623313664703e-02 7.530943413413987e-02 2.624547968990143e-03
3.411591888036225e-02 7.196197754257044e-02 1.897785680869291e-03
-1.081086131360687e-02 -5.336380034868915e-03 -4.284737253719584e-03
-9.829304255160431e-03 -6.855604893406753e-03 -3.650053515887208e-03
-7.936609234509728e-03 -7.956848386470483e-03 -2.647999455721362e-03
-5.287213685385511e-03 -7.055663738011697e-03 -1.545248008351763e-03
-2.508375940665816e-03 -4.067072491552137e-03 -6.427010814284984e-04
-5.193972791419504e-04 -9.367214322364426e-04 -1.211431787169204e-04
3.778938960568023e-04 4.546039903765087e-02 -4.684118187574526e-03
-1.173524202071730e-03 4.399181517687178e-02 -5.287717667048497e-03
-3.385825616649019e-03 4.134651218833552e-02 -6.080184889517781e-03
-5.589656453551917e-03 3.790841381160170e-02 -6.770645461729785e-03
-7.285417829791418e-03 3.453766790774804e-02 -7.213045647791461e-03
-8.249601412144925e-03 3.224435587977936e-02 -7.418667368805032e-03
-8.675193279397253e-03 3.112231937303300e-02 -7.496103997800319e-03
-9.431069343645015e-03 2.892599057880296e-02 -7.609009761312180e-03
-1.045251880230347e-02 2.541493134425421e-02 -7.696137645481826e-03
-1.138132500681022e-02 2.137433029223645e-02 -7.673739417299430e-03
-1.200867845339587e-02 1.778505399782293e-02 -7.556153921633779e-03
-1.231652190905275e-02 1.549980323459499e-02 -7.436328912003631e-03
-1.246975424843133e-02 1.410607042590128e-02 -7.346395286216278e-03
-1.272519486923818e-02 1.083488788172138e-02 -7.084710953495943e-03
-1.281602624118738e-02 6.005558735467043e-03 -6.560517848239300e-03
-1.248133957378383e-02 1.120465950070537e-03 -5.827430437644665e-03
-1.181030877408318e-02 -2.523587595363086e-03 -5.082882378658837e-03
-1.119961757499163e-02 -4.447275866403033e-03 -4.570684968630445e-03
-6.429851379449070e-03 2.592703787319639e-02 3.343916760815802e-03
-6.798310012962716e-03 2.798121675772763e-02 3.590132971801552e-03
-7.388404106962954e-03 3.132860224165246e-02 3.980574967130224e-03
-8.078389716451140e-03 3.532258860071130e-02 4.429141828204308e-03
-8.710278718861764e-03 3.904658465541261e-02 4.830680291288303e-03
-9.126252377312238e-03 4.152891762239846e-02 5.089511649973844e-03
-3.372178375647739e-03 1.037500140590497e-02 1.318361229053266e-03
-3.748563125735849e-03 1.210215300614387e-02 1.556480417811201e-03
-4.360983231328719e-03 1.504668869638143e-02 1.955621686374087e-03
-5.090829613476178e-03 1.873981684349441e-02 2.442588900930076e-03
-5.771019320967574e-03 2.233178480278436e-02 2.900795731520134e-03
-6.224448726651843e-03 2.479497726490393e-02 3.206064287500254e-03
-8.449922323788828e-05 6.116569131098260e-05 -7.509050167442410e-06
-4.423499460574909e-04 5.048933829700508e-04 2.931911911474572e-06
-1.058739079720622e-03 1.821922969805434e-03 1.409656495354739e-04
-1.841328996841862e-03 4.212022822436101e-03 4.576593411123042e-04
-2.611118209122076e-03 7.114110162430853e-03 8.629579650012431e-04
-3.143363585212555e-03 9.359829090135885e-03 1.177242103633347e-03
-1.409779129804978e-02 7.253547014876982e-02 7.757494004110299e-03
-1.438698401666905e-02 7.439378271645747e-02 7.885617158208902e-03
-1.484276765755066e-02 7.733124430396265e-02 8.081105453673132e-03
-1.536519638562983e-02 8.071037636838646e-02 8.295409050056435e-03
-1.583463014058117e-02 8.375694968806335e-02 8.479006078125906e-03
-1.613934114922921e-02 8.573930719022188e-02 8.593610507393379e-03
-9.378801975378437e-03 4.304698682221486e-02 5.244359891182881e-03
-9.982175831088624e-03 4.670484674867253e-02 5.606868127500775e-03
-1.095396801454218e-02 5.267842263821176e-02 6.167148611933015e-03
-1.209810251493570e-02 5.982213733980740e-02 6.786677473527902e-03
-1.315263751229589e-02 6.649473427895358e-02 7.316902866744357e-03
-1.385007849282083e-02 7.094728436903014e-02 7.645242625066828e-03
-1.985761090578486e-02 1.129976236622272e-01 9.744364358226676e-03