<?xml version="1.0" ?> 
<!-- 
# vtk DataFile Version 3.0
-->
<VTKFile type="UnstructuredGrid" version="0.1" compressor="vtkZLibDataCompressor" byte_order="LittleEndian">
  <UnstructuredGrid>
    <FieldData>
      <DataArray type="Float64" Name="TIME" NumberOfTuples="1" format="ascii">
1.000000010000000e+00 
      </DataArray>
    </FieldData>

    <Piece NumberOfPoints="144" NumberOfCells="0" >
      <Points>
        <DataArray type="Float64" NumberOfComponents="3" format="ascii">
9.973911591788898e-01 7.070227589081610e-02 1.734723475976807e-18
8.653318377871235e-01 4.995995694850023e-01 4.527195285533925e-01
8.653318377871235e-01 4.995995694850022e-01 4.527195285533924e-01
8.408869671830003e-01 5.400341474920286e-01 5.000000000000000e-01
8.408869671830003e-01 5.400341474920286e-01 5.000000000000000e-01
7.071067811870000e-01 7.071067811870000e-01 7.146018366030000e-01
7.071067811870000e-01 7.071067811870000e-01 7.146018366030000e-01
4.995995694841946e-01 8.653318377857246e-01 9.764841446522946e-01
4.995995694841946e-01 8.653318377857246e-01 9.764841446522946e-01
4.790734834772050e-01 8.767844645519829e-01 1.000000000000000e+00
4.790734834772048e-01 8.767844645519829e-01 1.000000000000000e+00
0.000000000000000e+00 1.000000000000000e+00 1.500000000000000e+00
1.000000000000000e-01 3.000000000000000e-01 2.500000000000000e+00
4.999999999999999e-01 3.000000000000000e-01 2.709523809523774e+00
4.999999999999999e-01 3.000000000000000e-01 2.709523809523774e+00
9.999999999999997e-01 3.000000000000000e-01 2.971428571428627e+00
1.054545454545373e+00 3.000000000000000e-01 3.000000000000000e+00
1.150000000000000e+00 3.000000000000000e-01 3.050000000000000e+00
9.999999999999997e-01 3.000000000000000e-01 2.971428571428627e+00
1.054545454545372e+00 3.000000000000000e-01 3.000000000000000e+00
1.150000000000000e+00 3.000000000000000e-01 3.050000000000000e+00
1.500000000000000e+00 3.000000000000000e-01 3.233333333333286e+00
1.500000000000000e+00 2.999999999999999e-01 3.233333333333286e+00
2.000000000000000e+00 3.000000000000000e-01 3.495238095238156e+00
9.973911591791951e-01 7.070227588610377e-02 5.000000000000000e+00
8.653318377868586e-01 4.995995694848514e-01 5.452719528552424e+00
8.653318377868584e-01 4.995995694848515e-01 5.452719528552424e+00
8.408869671819502e-01 5.400341474932241e-01 5.500000000000000e+00
8.408869671819506e-01 5.400341474932233e-01 5.500000000000000e+00
7.071067811870000e-01 7.071067811870000e-01 5.714601836600000e+00
7.071067811870000e-01 7.071067811870000e-01 5.714601836600000e+00
4.995995694842540e-01 8.653318377858240e-01 5.976484144650065e+00
4.995995694842541e-01 8.653318377858241e-01 5.976484144650065e+00
4.790734834754157e-01 8.767844645530971e-01 6.000000000000000e+00
4.790734834754157e-01 8.767844645530969e-01 5.999999999999999e+00
0.000000000000000e+00 1.000000000000000e+00 6.500000000000000e+00
1.000000000000000e-01 3.000000000000000e-01 7.500000000000000e+00
4.999999999999999e-01 3.000000000000000e-01 7.709523809523774e+00
5.000000000000000e-01 3.000000000000000e-01 7.709523809523774e+00
1.000000000000000e+00 3.000000000000000e-01 7.971428571428627e+00
1.054545454545370e+00 3.000000000000000e-01 7.999999999999999e+00
1.150000000000000e+00 3.000000000000000e-01 8.050000000000001e+00
9.999999999999996e-01 3.000000000000000e-01 7.971428571428627e+00
1.054545454545370e+00 3.000000000000000e-01 7.999999999999999e+00
1.150000000000000e+00 3.000000000000000e-01 8.050000000000001e+00
1.500000000000000e+00 3.000000000000000e-01 8.233333333333286e+00
1.500000000000000e+00 3.000000000000000e-01 8.233333333333286e+00
2.000000000000000e+00 3.000000000000000e-01 8.495238095238156e+00
9.973911591791951e-01 7.070227588610380e-02 1.000000000000000e+01
8.653318377868586e-01 4.995995694848514e-01 1.045271952855243e+01
8.653318377868585e-01 4.995995694848514e-01 1.045271952855242e+01
8.408869671819499e-01 5.400341474932244e-01 1.050000000000000e+01
8.408869671819501e-01 5.400341474932240e-01 1.050000000000000e+01
7.071067811870000e-01 7.071067811870000e-01 1.071460183660000e+01
7.071067811870000e-01 7.071067811870000e-01 1.071460183660000e+01
4.995995694842541e-01 8.653318377858241e-01 1.097648414465006e+01
4.995995694842541e-01 8.653318377858241e-01 1.097648414465006e+01
4.790734834754157e-01 8.767844645530970e-01 1.100000000000000e+01
4.790734834754144e-01 8.767844645530978e-01 1.100000000000000e+01
0.000000000000000e+00 1.000000000000000e+00 1.150000000000000e+01
1.000000000000000e-01 3.000000000000000e-01 1.250000000000000e+01
4.999999999999999e-01 3.000000000000000e-01 1.270952380952378e+01
4.999999999999999e-01 3.000000000000000e-01 1.270952380952378e+01
9.999999999999999e-01 3.000000000000000e-01 1.297142857142863e+01
1.054545454545370e+00 3.000000000000000e-01 1.300000000000000e+01
1.150000000000000e+00 3.000000000000000e-01 1.305000000000000e+01
1.000000000000000e+00 3.000000000000000e-01 1.297142857142863e+01
1.054545454545363e+00 2.999999999999999e-01 1.299999999999999e+01
1.150000000000000e+00 3.000000000000000e-01 1.305000000000000e+01
1.500000000000000e+00 3.000000000000000e-01 1.323333333333329e+01
1.500000000000000e+00 3.000000000000000e-01 1.323333333333329e+01
2.000000000000000e+00 3.000000000000000e-01 1.349523809523816e+01
9.099253964686810e-01 4.123445562477631e-01 1.535465891035190e+01
8.072068738973140e-01 5.895903953275775e-01 1.555997156345694e+01
7.282908569028873e-01 6.852364697703509e-01 1.568414605091970e+01
7.071067811870000e-01 7.071067811870000e-01 1.571460183660000e+01
8.072068738973139e-01 5.895903953275780e-01 1.555997156345694e+01
7.282908569028872e-01 6.852364697703509e-01 1.568414605091970e+01
9.974169025693937e-01 7.035175387221296e-02 1.499964828143268e+01
9.099253964686809e-01 4.123445562477634e-01 1.535465891035190e+01
2.540633997442249e-01 9.663749324558524e-01 1.624282984380450e+01
0.000000000000000e+00 1.000000000000000e+00 1.650000000000000e+01
7.071067811870000e-01 7.071067811870000e-01 1.571460183660000e+01
5.836698286482834e-01 8.114624093944559e-01 1.587652933040514e+01
5.836698286482851e-01 8.114624093944550e-01 1.587652933040514e+01
4.573855792697502e-01 8.882244714677371e-01 1.602452973237035e+01
4.573855792697501e-01 8.882244714677371e-01 1.602452973237035e+01
2.540633997442271e-01 9.663749324558519e-01 1.624282984380450e+01
6.456898118068776e-01 3.000000000000000e-01 1.778583752047027e+01
8.155693453509683e-01 3.000000000000000e-01 1.787482203804104e+01
4.285291040100551e-01 3.000000000000000e-01 1.767208667352903e+01
6.456898118068786e-01 3.000000000000000e-01 1.778583752047028e+01
1.000000000000000e-01 3.000000000000000e-01 1.750000000000000e+01
4.285291040100564e-01 3.000000000000000e-01 1.767208667352903e+01
1.053627568438921e+00 3.000000000000000e-01 1.799951920251567e+01
1.150000000000000e+00 3.000000000000000e-01 1.805000000000000e+01
8.155693453509688e-01 3.000000000000000e-01 1.787482203804104e+01
1.053627568438920e+00 3.000000000000000e-01 1.799951920251567e+01
1.312800678365587e+00 2.999999999999999e-01 1.813527654581049e+01
1.590794601595392e+00 3.000000000000000e-01 1.828089241035947e+01
1.590794601595394e+00 2.999999999999999e-01 1.828089241035947e+01
1.995978191111754e+00 3.000000000000000e-01 1.849313143343955e+01
1.995978191111753e+00 3.000000000000000e-01 1.849313143343955e+01
2.000000000000000e+00 3.000000000000000e-01 1.849523809523816e+01
1.150000000000000e+00 3.000000000000000e-01 1.805000000000000e+01
1.204849796232627e+00 3.000000000000000e-01 1.807873084564564e+01
1.204849796232627e+00 3.000000000000000e-01 1.807873084564563e+01
1.312800678365586e+00 3.000000000000000e-01 1.813527654581049e+01
9.099485189372152e-01 4.122934081581782e-01 2.035460276540420e+01
8.076045172945490e-01 5.890410240244062e-01 2.055929282701539e+01
7.282909319600672e-01 6.852363897773420e-01 2.068414594118266e+01
7.071067811870000e-01 7.071067811870000e-01 2.071460183660000e+01
8.076045172945480e-01 5.890410240244077e-01 2.055929282701539e+01
7.282909319600673e-01 6.852363897773419e-01 2.068414594118266e+01
9.973911599562510e-01 7.070226533250656e-02 1.999999998940044e+01
9.099485189372151e-01 4.122934081581787e-01 2.035460276540421e+01
2.527774973574919e-01 9.667165115395006e-01 2.124416100680999e+01
0.000000000000000e+00 1.000000000000000e+00 2.150000000000000e+01
7.071067811870000e-01 7.071067811870000e-01 2.071460183660000e+01
5.837475137366747e-01 8.114069955678970e-01 2.087643382987411e+01
5.837475137366727e-01 8.114069955678983e-01 2.087643382987412e+01
4.573869885829552e-01 8.882237495531340e-01 2.102452814839284e+01
4.573869885829553e-01 8.882237495531340e-01 2.102452814839284e+01
2.527774973574926e-01 9.667165115395002e-01 2.124416100680999e+01
6.456898117728429e-01 3.000000000000000e-01 2.278583752045245e+01
8.155693453656027e-01 3.000000000000000e-01 2.287482203804870e+01
4.285291039950259e-01 3.000000000000000e-01 2.267208667352115e+01
6.456898117728418e-01 2.999999999999999e-01 2.278583752045245e+01
1.000000000000000e-01 3.000000000000000e-01 2.250000000000000e+01
4.285291039950233e-01 3.000000000000000e-01 2.267208667352115e+01
1.053627568438919e+00 3.000000000000000e-01 2.299951920251566e+01
1.150000000000000e+00 3.000000000000000e-01 2.305000000000000e+01
8.155693453656017e-01 2.999999999999999e-01 2.287482203804870e+01
1.053627568438926e+00 3.000000000000000e-01 2.299951920251567e+01
1.312800678387915e+00 3.000000000000000e-01 2.313527654582219e+01
1.590794601608110e+00 3.000000000000000e-01 2.328089241036613e+01
1.590794601608110e+00 3.000000000000000e-01 2.328089241036613e+01
1.995978191109075e+00 3.000000000000000e-01 2.349313143343815e+01
1.995978191109071e+00 2.999999999999999e-01 2.349313143343814e+01
2.000000000000000e+00 3.000000000000000e-01 2.349523809523816e+01
1.150000000000000e+00 3.000000000000000e-01 2.305000000000000e+01
1.204849796220207e+00 2.999999999999999e-01 2.307873084563913e+01
1.204849796220206e+00 3.000000000000000e-01 2.307873084563913e+01
1.312800678387914e+00 3.000000000000000e-01 2.313527654582218e+01
        </DataArray>
      </Points>

      <Cells>
        <DataArray type="Int32" Name="connectivity" format="ascii">
0 1 2 3 4 5 6 7 8 9 10 11 12 13 14 15 16 17 18 19 20 21 22 23 24 25 26 27 28 29 30 31 32 33 34 35 36 37 38 39 40 41 42 43 44 45 46 47 48 49 50 51 52 53 54 55 56 57 58 59 60 61 62 63 64 65 66 67 68 69 70 71 72 73 74 75 76 77 78 79 80 81 82 83 84 85 86 87 88 89 90 91 92 93 94 95 96 97 98 99 100 101 102 103 104 105 106 107 108 109 110 111 112 113 114 115 116 117 118 119 120 121 122 123 124 125 126 127 128 129 130 131 132 133 134 135 136 137 138 139 140 141 142 143 
        </DataArray>
        <DataArray type="Int32" Name="offsets" format="ascii">

        </DataArray>
        <DataArray type="UInt8" Name="types" format="ascii">

        </DataArray>
      </Cells>

  <PointData>
        <DataArray type="Float64" Name="displacement" NumberOfComponents="3" format="ascii">
1.851283861955879e-01 1.705210196226933e-01 7.242565013554281e-03
3.321881769851520e-02 1.003511465531163e-01 -6.271638512672928e-03
3.321881769851531e-02 1.003511465531164e-01 -6.271638512672817e-03
2.440183064316070e-02 9.154259360556682e-02 -6.350979871815543e-03
2.440183064316070e-02 9.154259360556682e-02 -6.350979871815543e-03
-4.840773927256681e-03 5.515411700024442e-02 -8.253185936012652e-03
-4.840773927256681e-03 5.515411700024442e-02 -8.253185936012652e-03
-1.914071735499856e-02 1.866607768406880e-02 -9.583830513080982e-03
-1.914071735499856e-02 1.866607768406880e-02 -9.583830513080982e-03
-1.934518549285541e-02 1.581821816417106e-02 -9.365427540102500e-03
-1.934518549285541e-02 1.581821816417095e-02 -9.365427540102500e-03
0.000000000000000e+00 0.000000000000000e+00 0.000000000000000e+00
0.000000000000000e+00 0.000000000000000e+00 0.000000000000000e+00
-7.594221666239354e-03 2.388073504343019e-02 2.308113687627955e-03
-7.594221666239465e-03 2.388073504343025e-02 2.308113687627955e-03
-2.748779578642102e-02 1.138504089070936e-01 1.071200036767239e-02
-3.031977125712326e-02 1.273720608476865e-01 1.147584081518671e-02
-3.557694386679811e-02 1.526818501594518e-01 1.257128922145112e-02
-2.748779578642102e-02 1.138504089070936e-01 1.071200036767239e-02
-3.031977125712326e-02 1.273720608476863e-01 1.147584081518671e-02
-3.557694386679811e-02 1.526818501594518e-01 1.257128922145112e-02
-5.501069100283940e-02 2.569688017617919e-01 1.334695531036534e-02
-5.501069100283917e-02 2.569688017617918e-01 1.334695531036534e-02
-8.958113505591325e-02 4.466595346818193e-01 4.394318294519195e-03
2.902858802931934e-01 2.996136553067401e-01 9.582896500226923e-03
7.074785222066193e-02 1.758186323884675e-01 -7.337022498361101e-03
7.074785222066193e-02 1.758186323884676e-01 -7.337022498361101e-03
5.748739196094621e-02 1.627477041827118e-01 -7.788686484248686e-03
5.748739196094665e-02 1.627477041827120e-01 -7.788686484248686e-03
1.399966582031664e-02 1.047656615323390e-01 -7.936043941992210e-03
1.399966582031664e-02 1.047656615323390e-01 -7.936043941992210e-03
-7.785502929169019e-03 4.703042844803607e-02 -4.570773085148971e-03
-7.785502929169075e-03 4.703042844803584e-02 -4.570773085148083e-03
-8.386553762193827e-03 4.294000885538785e-02 -4.151248306101252e-03
-8.386553762193827e-03 4.294000885538785e-02 -4.151248306101252e-03
0.000000000000000e+00 0.000000000000000e+00 0.000000000000000e+00
0.000000000000000e+00 0.000000000000000e+00 0.000000000000000e+00
-1.587928845521597e-02 4.231877523779909e-02 7.650908764508912e-03
-1.587928845521597e-02 4.231877523779909e-02 7.650908764508912e-03
-5.699654253878217e-02 1.864741794699108e-01 2.914510777707147e-02
-6.243390150941952e-02 2.063716760865617e-01 3.113313091189784e-02
-7.224584617232388e-02 2.425342726622975e-01 3.406977240815401e-02
-5.699654253878217e-02 1.864741794699107e-01 2.914510777706969e-02
-6.243390150941952e-02 2.063716760865617e-01 3.113313091189784e-02
-7.224584617232388e-02 2.425342726622975e-01 3.406977240815401e-02
-1.107244624302455e-01 3.921989002849879e-01 3.820709099300679e-02
-1.107244624302455e-01 3.921989002849879e-01 3.820709099300679e-02
-1.780674910250895e-01 6.555134989293236e-01 2.503181498265228e-02
2.950626490506691e-01 3.082268544355559e-01 8.976414970200963e-03
7.279850983523950e-02 1.813808534273191e-01 -7.895055833401443e-03
7.279850983523950e-02 1.813808534273191e-01 -7.895055833399667e-03
5.932476650168195e-02 1.680165563250646e-01 -8.320726970435288e-03
5.932476650168228e-02 1.680165563250647e-01 -8.320726970433512e-03
1.488277806266014e-02 1.086450928337755e-01 -8.401448254167221e-03
1.488277806266014e-02 1.086450928337755e-01 -8.401448254167221e-03
-7.692916692636109e-03 4.917252230416569e-02 -4.900937521819415e-03
-7.692916692636109e-03 4.917252230416569e-02 -4.900937521819415e-03
-8.330146047849429e-03 4.493768585390379e-02 -4.460050057195630e-03
-8.330146047849596e-03 4.493768585390345e-02 -4.460050057195630e-03
0.000000000000000e+00 0.000000000000000e+00 0.000000000000000e+00
0.000000000000000e+00 0.000000000000000e+00 0.000000000000000e+00
-1.613581527967872e-02 4.340585446906342e-02 7.719413132546649e-03
-1.613581527967872e-02 4.340585446906342e-02 7.719413132546649e-03
-5.790297128583222e-02 1.903389710976326e-01 2.926778783007222e-02
-6.341586110434061e-02 2.105247362453465e-01 3.124766063706375e-02
-7.335653717449397e-02 2.471493204927925e-01 3.415953276351580e-02
-5.790297128583255e-02 1.903389710976326e-01 2.926778783007222e-02
-6.341586110433983e-02 2.105247362453444e-01 3.124766063706552e-02
-7.335653717449397e-02 2.471493204927925e-01 3.415953276351580e-02
-1.125241037396418e-01 3.986170992154112e-01 3.810347974184403e-02
-1.125241037396418e-01 3.986170992154112e-01 3.810347974184403e-02
-1.816311365201659e-01 6.651421477814423e-01 2.443097144931095e-02
3.253432953034485e-02 7.110905088266450e-02 1.731289086565724e-03
1.214811956596495e-02 5.611827448694395e-02 -1.055245447874498e-03
3.011718450697032e-03 4.767579483905859e-02 -3.658826371863100e-03
7.802641661642795e-04 4.579559489446128e-02 -4.521895556059974e-03
1.214811956596484e-02 5.611827448694395e-02 -1.055245447874498e-03
3.011718450697143e-03 4.767579483905870e-02 -3.658826371863100e-03
1.120770498258903e-01 9.054984082180775e-02 1.161122387417635e-02
3.253432953034463e-02 7.110905088266450e-02 1.731289086565724e-03
-1.102614418197215e-02 -4.869515286006765e-03 -4.440030183229027e-03
0.000000000000000e+00 0.000000000000000e+00 0.000000000000000e+00
7.802641661642795e-04 4.579559489446128e-02 -4.521895556059974e-03
-8.474700837347915e-03 3.166019601440484e-02 -7.460750853860887e-03
-8.474700837348026e-03 3.166019601440484e-02 -7.460750853859111e-03
-1.238176494573456e-02 1.493508336083260e-02 -7.401426681504120e-03
-1.238176494573451e-02 1.493508336083260e-02 -7.401426681504120e-03
-1.102614418197223e-02 -4.869515286006765e-03 -4.440030183229027e-03
-6.339376858547130e-03 2.542720116307712e-02 3.283240750970862e-03
-9.231070449878476e-03 4.215800292725658e-02 5.153995845184056e-03
-3.280508023780382e-03 9.964969122776002e-03 1.261455415114909e-03
-6.339376858547241e-03 2.542720116307723e-02 3.283240750974414e-03
0.000000000000000e+00 0.000000000000000e+00 0.000000000000000e+00
-3.280508023780437e-03 9.964969122776057e-03 1.261455415114909e-03
-1.402620643958952e-02 7.207616457961319e-02 7.725292095198455e-03
-1.621561057630894e-02 8.623605870260753e-02 8.621731464462101e-03
-9.231070449878698e-03 4.215800292725663e-02 5.153995845184056e-03
-1.402620643958974e-02 7.207616457961308e-02 7.725292095202008e-03
-1.967506458589940e-02 1.115024940522165e-01 9.701854314403846e-03
-2.489908608794256e-02 1.593390720343906e-01 1.003671075053703e-02
-2.489908608794256e-02 1.593390720343910e-01 1.003671075053347e-02
-3.523233659820746e-02 2.523582385711089e-01 7.037037514294298e-03
-3.523233659820724e-02 2.523582385711087e-01 7.037037514294298e-03
-3.537165522727426e-02 2.534813562347436e-01 6.986151912375504e-03
-1.621561057630894e-02 8.623605870260753e-02 8.621731464462101e-03
-1.745575897611018e-02 9.464583105404517e-02 9.057822322340314e-03
-1.745575897610974e-02 9.464583105404506e-02 9.057822322340314e-03
-1.967506458589940e-02 1.115024940522162e-01 9.701854314407399e-03
1.044573474608683e-01 2.079328302702184e-01 -6.167762747445238e-03
4.429248396459473e-02 1.512205776449127e-01 -8.259713033073268e-03
1.968094317575741e-02 1.169540835490487e-01 -8.250222214854830e-03
1.478123048044377e-02 1.086923123600344e-01 -8.164950401454263e-03
4.429248396459429e-02 1.512205776449124e-01 -8.259713033076821e-03
1.968094317575730e-02 1.169540835490489e-01 -8.250222214854830e-03
2.897792861546458e-01 3.030148387056484e-01 8.823184004032925e-03
1.044573474608680e-01 2.079328302702182e-01 -6.167762747448791e-03
-7.102974447016935e-03 1.196240143782579e-02 -3.744126712312834e-04
0.000000000000000e+00 0.000000000000000e+00 0.000000000000000e+00
1.478123048044377e-02 1.086923123600344e-01 -8.164950401454263e-03
-3.084050463451948e-03 6.917805000293487e-02 -6.608020385399982e-03
-3.084050463452170e-03 6.917805000293442e-02 -6.608020385403535e-03
-9.195122813838774e-03 4.060450681903005e-02 -4.051314985741072e-03
-9.195122813838774e-03 4.060450681902983e-02 -4.051314985744625e-03
-7.102974447016963e-03 1.196240143782579e-02 -3.744126712312834e-04
-2.616076634093067e-02 7.664140786787565e-02 1.373986904893343e-02
-4.013339614592870e-02 1.255743233600294e-01 2.142555621713882e-02
-1.186150932084207e-02 2.949835037066212e-02 5.165038371899300e-03
-2.616076634093056e-02 7.664140786787532e-02 1.373986904893343e-02
0.000000000000000e+00 0.000000000000000e+00 0.000000000000000e+00
-1.186150932084196e-02 2.949835037066162e-02 5.165038371902853e-03
-6.280144868738113e-02 2.077120440025653e-01 3.120712967260886e-02
-7.272754255637137e-02 2.443314106240496e-01 3.418745800697920e-02
-4.013339614592870e-02 1.255743233600292e-01 2.142555621714237e-02
-6.280144868738191e-02 2.077120440025679e-01 3.120712967260175e-02
-9.014263104285858e-02 3.105686193421099e-01 3.747248473825238e-02
-1.224440074775845e-01 4.380069282561279e-01 3.797331615730926e-02
-1.224440074775848e-01 4.380069282561279e-01 3.797331615730926e-02
-1.789926727786988e-01 6.560665803182262e-01 2.631197341112923e-02
-1.789926727786983e-01 6.560665803182238e-01 2.631197341113634e-02
-1.796280197658140e-01 6.584228300594452e-01 2.611844318672496e-02
-7.272754255637137e-02 2.443314106240496e-01 3.418745800697920e-02
-7.850692032076778e-02 2.659544150718677e-01 3.553277221078943e-02
-7.850692032076756e-02 2.659544150718674e-01 3.553277221078943e-02
-9.014263104285858e-02 3.105686193421094e-01 3.747248473825593e-02
        </DataArray>
        <DataArray type="Float64" Name="projection_direction" NumberOfComponents="3" format="ascii">
9.722148305986611e-03 1.431576378045032e-02 -3.935749696652084e-03
1.294833505278381e-02 1.455665473352774e-02 -1.902938295323897e-03
1.294833505278370e-02 1.455665473352774e-02 -1.902938295323897e-03
6.216582115756486e-03 9.580506499880515e-03 -1.939201885873376e-03
6.216582115756486e-03 9.580506499880515e-03 -1.939201885873376e-03
-3.944697416991216e-03 -5.835477780970266e-03 4.205139652118106e-04
-3.944697416991216e-03 -5.835477780970266e-03 4.205139652118106e-04
5.096386748410620e-03 1.126955608516422e-02 -5.583942675830844e-04
5.096386748410675e-03 1.126955608516411e-02 -5.583942675833065e-04
2.752655786484537e-03 7.196371986338601e-03 -4.193029259880188e-04
2.752655786484537e-03 7.196371986338601e-03 -4.193029259881298e-04
0.000000000000000e+00 0.000000000000000e+00 0.000000000000000e+00
-2.991265333261856e-04 1.037275220894529e-03 3.853253952490476e-05
3.636556140085845e-04 -5.726161772992067e-03 -1.102490128874756e-03
3.636556140087510e-04 -5.726161772992067e-03 -1.102490128873868e-03
2.977632573308853e-05 -1.652992261972297e-03 5.331880414143342e-04
2.993537651785338e-05 -5.853677594028217e-04 1.759445096527479e-04
4.889402555985356e-05 -1.125153995800154e-04 -2.900473848792551e-04
2.977632573308853e-05 -1.652992261972297e-03 5.331880414143342e-04
2.993537651807543e-05 -5.853677594028217e-04 1.759445096531920e-04
4.889402555985356e-05 -1.125153995800154e-04 -2.900473848792551e-04
3.154721559868179e-04 -1.549281067952601e-03 6.345738619244479e-04
3.154721559870399e-04 -1.549281067952490e-03 6.345738619244479e-04
1.191485439720807e-03 -2.639064114691281e-03 4.952498828050267e-04
-5.127176538635814e-03 -4.657580778172632e-03 -2.352006983223021e-03
-1.706422806091901e-03 -1.842944437715488e-03 -2.187262631842657e-03
-1.706422806092012e-03 -1.842944437715932e-03 -2.187262631843545e-03
-1.807086161449423e-03 -2.668103842731195e-03 -2.190940985688172e-03
-1.807086161449534e-03 -2.668103842731084e-03 -2.190940985688172e-03
4.081885161549836e-04 4.429932517603374e-04 6.033239842011540e-04
4.081885161549836e-04 4.429932517603374e-04 6.033239842011540e-04
-5.975543100283365e-04 -3.057809267537070e-05 -1.538441057187256e-04
-5.975543100283365e-04 -3.057809267514866e-05 -1.538441057196138e-04
-7.148017533477047e-04 -4.215020399026548e-04 -1.443861953811520e-04
-7.148017533475381e-04 -4.215020399024327e-04 -1.443861953811520e-04
0.000000000000000e+00 0.000000000000000e+00 8.881784197001252e-16
-4.581641280157617e-04 -1.343001455640092e-03 -5.448759336115216e-04
6.599328057464438e-04 7.772347588828610e-04 3.653531026222012e-04
6.599328057464438e-04 7.772347588829165e-04 3.653531026239776e-04
1.425362537226249e-04 -2.724672440661546e-04 1.727788411347575e-04
6.552183993890903e-04 1.854832910025417e-04 3.476426255577536e-04
1.562168835527178e-04 3.103682640919203e-04 -2.977421300442984e-05
1.425362537231800e-04 -2.724672440659326e-04 1.727788411365339e-04
6.552183993890903e-04 1.854832910026527e-04 3.476426255577536e-04
1.562168835527178e-04 3.103682640919203e-04 -2.977421300442984e-05
2.477807133465237e-04 -2.304671615034337e-04 5.567623053028825e-04
2.477807133467458e-04 -2.304671615033227e-04 5.567623053028825e-04
2.981741753373957e-04 3.801701197313490e-04 4.578290356427317e-04
-4.912634856874876e-03 -4.370837476686262e-03 -2.473410283874600e-03
-2.080090657657463e-03 -1.452021048522933e-03 -2.169962101669753e-03
-2.080090657657574e-03 -1.452021048523044e-03 -2.169962101667977e-03
-2.211441875847986e-03 -2.755278818507678e-03 -2.332659389383096e-03
-2.211441875848097e-03 -2.755278818507567e-03 -2.332659389381320e-03
7.891452841052304e-04 6.336580688894866e-04 3.481262503761684e-04
7.891452841052304e-04 6.336580688894866e-04 3.481262503761684e-04
-6.020095948998105e-04 -1.996617924113764e-04 -1.627045460566023e-04
-6.020095948998661e-04 -1.996617924115984e-04 -1.627045460566023e-04
-5.063255029205127e-04 -4.905725351402879e-04 -3.731001172067039e-04
-5.063255029203462e-04 -4.905725351401768e-04 -3.731001172049275e-04
0.000000000000000e+00 0.000000000000000e+00 0.000000000000000e+00
-2.466571699537706e-04 -1.760261281484599e-03 -6.182506578440439e-04
1.138662895394660e-04 2.380881516394484e-04 3.072812132920433e-04
1.138662895395770e-04 2.380881516393374e-04 3.072812132902669e-04
2.413524815405577e-04 -2.671961414232316e-04 3.024549088852524e-04
7.989485180922573e-04 1.616507347070861e-04 5.745660763398774e-04
1.219478607139557e-05 2.943142804673338e-04 -2.092241821571861e-05
2.413524815403356e-04 -2.671961414231205e-04 3.024549088852524e-04
7.989485180922573e-04 1.616507347071972e-04 5.745660763416538e-04
1.219478607139557e-05 2.943142804673338e-04 -2.092241821571861e-05
4.603729065686402e-04 -3.885901346973863e-04 4.731223672891360e-04
4.603729065686402e-04 -3.885901346971643e-04 4.731223672909124e-04
-1.078010805280361e-03 1.828380773807092e-03 -6.975475114927576e-04
8.364883838522408e-03 6.163030155551530e-03 -2.572204595807648e-05
-6.347975153515928e-03 -3.135947992279120e-03 -6.828057097045814e-04
5.705912485549969e-03 7.852347581519314e-03 -7.320706513773700e-04
2.606477674993224e-03 3.028106837443478e-03 -2.022434229207448e-04
-6.347975153516150e-03 -3.135947992279120e-03 -6.828057097063578e-04
5.705912485549969e-03 7.852347581519203e-03 -7.320706513791464e-04
-1.186068314766864e-03 3.687003472252370e-03 -1.984638330364774e-03
8.364883838522519e-03 6.163030155551474e-03 -2.572204596162919e-05
-1.820010457513871e-03 -2.457735037732833e-03 -4.420732304062369e-04
6.670893411037488e-18 0.000000000000000e+00 0.000000000000000e+00
2.606477674993224e-03 3.028106837443478e-03 -2.022434229207448e-04
-2.533311336488819e-03 -8.334605116212757e-03 9.493563957221340e-04
-2.533311336488819e-03 -8.334605116212757e-03 9.493563957203577e-04
5.840003282637563e-03 1.402719588943124e-02 -3.289223424758347e-04
5.840003282637563e-03 1.402719588943124e-02 -3.289223424758347e-04
-1.820010457513871e-03 -2.457735037732722e-03 -4.420732303991315e-04
-7.498389935578498e-05 1.503730339343923e-04 -2.014691773766231e-05
-1.947096505428014e-05 4.762025630752342e-04 4.661443940392473e-04
5.683467763180627e-04 -3.760398840950641e-03 -6.135245018867863e-04
-7.498389935556293e-05 1.503730339345033e-04 -2.014691774121502e-05
-4.790917454256527e-04 1.214674491471390e-03 2.154656444162129e-04
5.683467763180627e-04 -3.760398840950696e-03 -6.135245018903390e-04
-1.316670495021821e-04 1.391205825194641e-03 -1.108380643621842e-04
-7.709552213031046e-05 -9.180946111506660e-04 -5.955879335672876e-05
-1.947096505383605e-05 4.762025630751787e-04 4.661443940392473e-04
-1.316670495019601e-04 1.391205825194752e-03 -1.108380643657370e-04
2.933312083290840e-04 -9.200285264218677e-04 -1.160865484024498e-04
-3.861350491574100e-06 -1.346612273093961e-03 3.565818478037386e-04
-3.861350491574100e-06 -1.346612273094294e-03 3.565818478037386e-04
7.555244535042416e-04 -3.988608098037916e-03 2.926610084514891e-04
7.555244535044636e-04 -3.988608098037805e-03 2.926610084514891e-04
8.102729589427593e-04 -4.299780809747245e-03 3.092603243217695e-04
-7.709552213031046e-05 -9.180946111506660e-04 -5.955879335672876e-05
-5.197440468318604e-05 -2.583172049122340e-03 4.373877616359323e-05
-5.197440468340808e-05 -2.583172049122229e-03 4.373877617069866e-05
2.933312083290840e-04 -9.200285264218677e-04 -1.160865484060025e-04
-4.459217170713625e-04 6.395726683735559e-04 -9.778006494443048e-05
-1.842651153417196e-03 -1.616473968586218e-03 -8.210641031745070e-04
3.103222481815049e-05 5.174815170094771e-04 2.592106966829988e-04
4.227068510597176e-04 4.323365025338255e-04 3.932345222494860e-04
-1.842651153417418e-03 -1.616473968586662e-03 -8.210641031816124e-04
3.103222481815049e-05 5.174815170091440e-04 2.592106966865515e-04
-6.027342890409848e-03 -3.035020696001978e-03 -2.230352792199852e-03
-4.459217170713625e-04 6.395726683735559e-04 -9.778006495153591e-05
-3.142776746742626e-04 9.202848805367481e-05 2.894901650805082e-04
1.473832689990819e-18 0.000000000000000e+00 -1.421085471520200e-14
4.227068510597176e-04 4.323365025338255e-04 3.932345222494860e-04
1.128046377610215e-03 5.504550936629160e-04 2.248188255720152e-04
1.128046377610215e-03 5.504550936631381e-04 2.248188255684624e-04
-7.474439322084359e-04 -2.352573122108570e-04 -2.172522005920996e-04
-7.474439322084359e-04 -2.352573122109680e-04 -2.172522005920996e-04
-3.142776746742626e-04 9.202848805367481e-05 2.894901650805082e-04
6.408561419823933e-05 -3.553654852131993e-04 2.886342461039249e-06
-6.656448915831614e-04 -4.875651025000316e-04 -2.697001849654157e-04
2.918856711111029e-04 9.816935541062111e-04 4.427805155415854e-06
6.408561419823933e-05 -3.553654852131438e-04 2.886342464591962e-06
-2.849086424281944e-04 -1.476184405280689e-03 -3.990535741706935e-04
2.918856711107698e-04 9.816935541065996e-04 4.427805162521281e-06
4.988163001306001e-04 -1.139661241454926e-04 1.285070857157677e-04
4.629805167555290e-05 8.377286343341783e-05 -1.595661620612532e-04
-6.656448915827173e-04 -4.875651024998096e-04 -2.697001849618630e-04
4.988163001307111e-04 -1.139661241460477e-04 1.285070857122150e-04
3.593350802892914e-04 2.096283710741886e-04 2.352389112232345e-04
-4.139906701108309e-04 -4.086665861411376e-04 3.358851775381311e-04
-4.139906701103868e-04 -4.086665861410266e-04 3.358851775416838e-04
1.363187390657217e-05 -3.689027305541215e-04 6.480303466140924e-04