<?xml version="1.0" ?> 
<!-- 
# vtk DataFile Version 3.0
-->
<VTKFile type="UnstructuredGrid" version="0.1" compressor="vtkZLibDataCompressor" byte_order="LittleEndian">
  <UnstructuredGrid>
    <FieldData>
      <DataArray type="Float64" Name="TIME" NumberOfTuples="1" format="ascii">
1.000000010000000e+00 
      </DataArray>
    </FieldData>

    <Piece NumberOfPoints="432" NumberOfCells="0" >
      <Points>
        <DataArray type="Float64" NumberOfComponents="3" format="ascii">
9.961533271249772e-01 8.592418384678263e-02 1.528337982331200e-02
9.887948166351245e-01 1.468155374270068e-01 7.667799810771526e-02
9.699057734523876e-01 2.404816442810291e-01 1.723323091259246e-01
9.380670753119250e-01 3.436214899201149e-01 2.803645491270424e-01
9.009383449562893e-01 4.317257829641916e-01 3.760283814780545e-01
8.728438351829588e-01 4.862941241986100e-01 4.374338241997576e-01
8.645497179207690e-01 5.009905353633890e-01 4.543169038318230e-01
8.613358063736756e-01 5.065360022142251e-01 4.607295218781859e-01
8.562595335071101e-01 5.151341387639032e-01 4.707195401452113e-01
8.504256031905375e-01 5.247830668030913e-01 4.820013477889918e-01
8.451705116306317e-01 5.332719929190378e-01 4.919911981986658e-01
8.417533079841827e-01 5.386933026253933e-01 4.984036254144578e-01
8.369844012625144e-01 5.461338450598406e-01 5.072470518605612e-01
8.208293326319031e-01 5.703233495071933e-01 5.363568825278568e-01
7.942826731317092e-01 6.070389578825850e-01 5.817045503305586e-01
7.623226018629761e-01 6.469891358987735e-01 6.329131400689270e-01
7.323077742787821e-01 6.809298918793747e-01 6.782544153420192e-01
7.122098786565071e-01 7.019647732937389e-01 7.073569785881059e-01
7.008269703339650e-01 7.133286624821787e-01 7.234425934339291e-01
6.750380656917666e-01 7.377237166736984e-01 7.589561375426007e-01
6.331395642194958e-01 7.737907594582356e-01 8.142863031150043e-01
5.834721328776936e-01 8.116130623034302e-01 8.767770828577718e-01
5.375825449257529e-01 8.424573708019101e-01 9.321159789766326e-01
5.072563274668254e-01 8.609148991254212e-01 9.676394485080029e-01
4.989181105624472e-01 8.657388507079918e-01 9.772772463162399e-01
4.961485477197376e-01 8.673179129656859e-01 9.804668126475878e-01
4.918240125484837e-01 8.697606269083593e-01 9.854357811279071e-01
4.869258747753885e-01 8.724938773765353e-01 9.910473410530819e-01
4.825760223300797e-01 8.748916482902315e-01 9.960163415429137e-01
4.797776772515959e-01 8.764196165457182e-01 9.992059442646466e-01
4.641820757027362e-01 8.847293964097783e-01 1.016883977387486e+00
4.030747554866604e-01 9.140811066112818e-01 1.084705534588477e+00
3.043774023420248e-01 9.515951681557092e-01 1.190363718097799e+00
1.889884020168897e-01 9.814371024916003e-01 1.309679306070888e+00
8.453087395143127e-02 9.962767781174711e-01 1.415320141478604e+00
1.687503226683158e-02 9.998508504843151e-01 1.483121976289675e+00
1.135060971593723e-01 2.999999999999999e-01 2.507074622321568e+00
1.677581227067583e-01 2.999999999999999e-01 2.535492349989220e+00
2.522761627833781e-01 3.000000000000000e-01 2.579763704315047e+00
3.477238372166552e-01 2.999999999999999e-01 2.629760105208663e+00
4.322418772932615e-01 3.000000000000000e-01 2.674031459534515e+00
4.864939028406323e-01 3.000000000000000e-01 2.702449187202197e+00
5.168826214492115e-01 3.000000000000000e-01 2.718367087425746e+00
5.846976533834305e-01 3.000000000000000e-01 2.753889247010356e+00
6.903452034791921e-01 2.999999999999999e-01 2.809228439917691e+00
8.096547965207874e-01 2.999999999999999e-01 2.871723941034747e+00
9.153023466165575e-01 3.000000000000000e-01 2.927063133942068e+00
9.831173785507854e-01 3.000000000000000e-01 2.962585293526660e+00
1.057768500458407e+00 3.000000000000000e-01 3.001688262144921e+00
1.070715006554950e+00 2.999999999999999e-01 3.008469765338345e+00
1.090884084300523e+00 3.000000000000000e-01 3.019034520347923e+00
1.113661370244847e+00 3.000000000000000e-01 3.030965479652083e+00
1.133830447990420e+00 3.000000000000000e-01 3.041530234661658e+00
1.146776954086965e+00 2.999999999999999e-01 3.048311737855079e+00
1.001841740521729e+00 3.000000000000000e-01 2.972393292654295e+00
1.009239744005451e+00 3.000000000000000e-01 2.976268437336243e+00
1.020764931288608e+00 3.000000000000000e-01 2.982305440198846e+00
1.033780523256763e+00 2.999999999999999e-01 2.989123131229781e+00
1.045305710539920e+00 3.000000000000000e-01 2.995160134092385e+00
1.052703714023642e+00 3.000000000000000e-01 2.999035278774333e+00
1.161817835014451e+00 3.000000000000000e-01 3.056190294531372e+00
1.209288357368413e+00 3.000000000000000e-01 3.081055806240567e+00
1.283241642435455e+00 3.000000000000000e-01 3.119793241275662e+00
1.366758357564573e+00 3.000000000000000e-01 3.163540092057572e+00
1.440711642631604e+00 3.000000000000000e-01 3.202277527092688e+00
1.488182164985553e+00 3.000000000000000e-01 3.227143038801907e+00
1.516882621449212e+00 3.000000000000000e-01 3.242176611235258e+00
1.584697653383433e+00 3.000000000000000e-01 3.277698770819866e+00
1.690345203479196e+00 3.000000000000000e-01 3.333037963727203e+00
1.809654796520792e+00 3.000000000000000e-01 3.395533464844262e+00
1.915302346616560e+00 3.000000000000000e-01 3.450872657751589e+00
1.983117378550786e+00 3.000000000000000e-01 3.486394817336187e+00
9.961533271253296e-01 8.592418384217376e-02 5.015283379823330e+00
9.887948166356073e-01 1.468155374228856e-01 5.076677998107750e+00
9.699057734529003e-01 2.404816442778350e-01 5.172332309125818e+00
9.380670753122621e-01 3.436214899181053e-01 5.280364549126623e+00
9.009383449563296e-01 4.317257829632458e-01 5.376028381477314e+00
8.728438351827587e-01 4.862941241983075e-01 5.437433824198830e+00
8.645497179204790e-01 5.009905353632850e-01 5.454316903830886e+00
8.613358063732846e-01 5.065360022143093e-01 5.460729521877379e+00
8.562595335065577e-01 5.151341387642768e-01 5.470719540144607e+00
8.504256031897974e-01 5.247830668037863e-01 5.482001347788620e+00
8.451705116297210e-01 5.332719929200129e-01 5.491991198198501e+00
8.417533079831601e-01 5.386933026265457e-01 5.498403625414426e+00
8.369844012614825e-01 5.461338450610063e-01 5.507247051860443e+00
8.208293326309561e-01 5.703233495082327e-01 5.536356882527267e+00
7.942826731309313e-01 6.070389578834086e-01 5.581704550329273e+00
7.623226018624463e-01 6.469891358993184e-01 5.632913140066917e+00
7.323077742785252e-01 6.809298918796344e-01 5.678254415339432e+00
7.122098786564531e-01 7.019647732937931e-01 5.707356978585183e+00
7.008269703339560e-01 7.133286624821875e-01 5.723442593430942e+00
6.750380656917322e-01 7.377237166737389e-01 5.758956137539680e+00
6.331395642194487e-01 7.737907594583108e-01 5.814286303112216e+00
5.834721328776663e-01 8.116130623035268e-01 5.876777082855174e+00
5.375825449257670e-01 8.424573708020124e-01 5.932115978974230e+00
5.072563274668751e-01 8.609148991255217e-01 5.967639448505737e+00
4.989181105624448e-01 8.657388507081271e-01 5.977277246314084e+00
4.961485477194867e-01 8.673179129659634e-01 5.980466812645735e+00
4.918240125478441e-01 8.697606269088557e-01 5.985435781126525e+00
4.869258747743074e-01 8.724938773772738e-01 5.991047341052233e+00
4.825760223286057e-01 8.748916482911806e-01 5.996016341542536e+00
4.797776772498685e-01 8.764196165468005e-01 5.999205944264572e+00
4.641820757010026e-01 8.847293964108310e-01 6.016883977387496e+00
4.030747554851750e-01 9.140811066120947e-01 6.084705534588534e+00
3.043774023409638e-01 9.515951681561915e-01 6.190363718097931e+00
1.889884020163067e-01 9.814371024917954e-01 6.309679306071064e+00
8.453087395121368e-02 9.962767781175123e-01 6.415320141478731e+00
1.687503226679496e-02 9.998508504843168e-01 6.483121976289708e+00
1.135060971593723e-01 2.999999999999999e-01 7.507074622321567e+00
1.677581227067584e-01 2.999999999999999e-01 7.535492349989219e+00
2.522761627833782e-01 3.000000000000000e-01 7.579763704315047e+00
3.477238372166552e-01 3.000000000000000e-01 7.629760105208663e+00
4.322418772932615e-01 3.000000000000000e-01 7.674031459534515e+00
4.864939028406323e-01 3.000000000000000e-01 7.702449187202197e+00
5.168826214492115e-01 3.000000000000000e-01 7.718367087425746e+00
5.846976533834306e-01 3.000000000000000e-01 7.753889247010356e+00
6.903452034791924e-01 3.000000000000000e-01 7.809228439917693e+00
8.096547965207879e-01 3.000000000000000e-01 7.871723941034748e+00
9.153023466165575e-01 3.000000000000000e-01 7.927063133942069e+00
9.831173785507861e-01 3.000000000000000e-01 7.962585293526661e+00
1.057768500458404e+00 3.000000000000000e-01 8.001688262144921e+00
1.070715006554948e+00 3.000000000000000e-01 8.008469765338344e+00
1.090884084300521e+00 3.000000000000000e-01 8.019034520347923e+00
1.113661370244846e+00 3.000000000000000e-01 8.030965479652084e+00
1.133830447990420e+00 3.000000000000000e-01 8.041530234661657e+00
1.146776954086965e+00 3.000000000000000e-01 8.048311737855082e+00
1.001841740521729e+00 2.999999999999999e-01 7.972393292654295e+00
1.009239744005451e+00 3.000000000000000e-01 7.976268437336243e+00
1.020764931288607e+00 3.000000000000000e-01 7.982305440198846e+00
1.033780523256761e+00 3.000000000000000e-01 7.989123131229781e+00
1.045305710539918e+00 2.999999999999999e-01 7.995160134092385e+00
1.052703714023640e+00 3.000000000000000e-01 7.999035278774334e+00
1.161817835014451e+00 3.000000000000000e-01 8.056190294531373e+00
1.209288357368413e+00 3.000000000000000e-01 8.081055806240567e+00
1.283241642435455e+00 3.000000000000000e-01 8.119793241275664e+00
1.366758357564573e+00 3.000000000000000e-01 8.163540092057572e+00
1.440711642631603e+00 3.000000000000000e-01 8.202277527092688e+00
1.488182164985553e+00 3.000000000000000e-01 8.227143038801907e+00
1.516882621449212e+00 3.000000000000000e-01 8.242176611235257e+00
1.584697653383433e+00 3.000000000000000e-01 8.277698770819866e+00
1.690345203479196e+00 2.999999999999999e-01 8.333037963727202e+00
1.809654796520792e+00 3.000000000000000e-01 8.395533464844263e+00
1.915302346616560e+00 3.000000000000000e-01 8.450872657751589e+00
1.983117378550787e+00 3.000000000000000e-01 8.486394817336187e+00
[...]
  <PointData>
        <DataArray type="Float64" Name="displacement" NumberOfComponents="3" format="ascii">
1.775186164036753e-01 1.691321800327705e-01 6.033507574315297e-03
1.489702886761856e-01 1.625913879859068e-01 1.900328729895581e-03
1.105188059687373e-01 1.496291426049249e-01 -2.479237221362840e-03
7.504680599992974e-02 1.319632979390738e-01 -5.092936865046471e-03
4.980843622906450e-02 1.146727130465769e-01 -6.026074931887782e-03
3.628158873795728e-02 1.032111981737879e-01 -6.241142381940123e-03
3.289451815393685e-02 1.000508672347885e-01 -6.274617846994013e-03
3.164366668836027e-02 9.885170992498526e-02 -6.285916407074321e-03
2.973328795596830e-02 9.698587887120136e-02 -6.302604067735029e-03
2.763096003863563e-02 9.488332342680783e-02 -6.320889953202458e-03
2.581716414266999e-02 9.302674401222222e-02 -6.337365207317314e-03
2.467611399155367e-02 9.183810453542629e-02 -6.348422290559874e-03
2.313175366162334e-02 9.020340695136364e-02 -6.364688508618599e-03
1.828058671716704e-02 8.486853842162723e-02 -6.432311060927121e-03
1.139167804659336e-02 7.674834855276302e-02 -6.613673294894928e-03
4.498478141867657e-03 6.796773757424845e-02 -7.002700923982252e-03
-9.130100806273855e-04 6.064771219196119e-02 -7.583176900230915e-03
-4.084554504020121e-03 5.622251991176985e-02 -8.104536525741945e-03
-5.739040401642415e-03 5.386748995042423e-02 -8.438079310249313e-03
-9.024710615166409e-03 4.867817945566422e-02 -9.062328299564659e-03
-1.315700436422163e-02 4.064374426733741e-02 -9.699995850056542e-03
-1.648014372662299e-02 3.179753903155980e-02 -9.976202837043702e-03
-1.833415081923495e-02 2.431966502567473e-02 -9.874157814521278e-03
-1.902972450162138e-02 1.976308754716183e-02 -9.657456011281096e-03
-1.915567030975107e-02 1.856567282501764e-02 -9.580075844410452e-03
-1.919162830357463e-02 1.817331502872288e-02 -9.552801625870688e-03
-1.924204065880675e-02 1.756604912072723e-02 -9.508690781339646e-03
-1.929083526395264e-02 1.688619342510045e-02 -9.456535305369829e-03
-1.932691042268642e-02 1.628955895020778e-02 -9.408313390460221e-03
-1.934656900887777e-02 1.590928762157706e-02 -9.376365454021318e-03
-1.940678960356484e-02 1.384136941081504e-02 -9.185594725210855e-03
-1.891781108049806e-02 6.601908298436765e-03 -8.259471052623368e-03
-1.619368610736915e-02 -2.004557809082375e-03 -6.346816172025482e-03
-1.094666945331410e-02 -6.738325894858344e-03 -3.822001440997758e-03
-5.081755578373454e-03 -5.442640806210708e-03 -1.586560664046832e-03
-1.022134872677199e-03 -1.424726824257205e-03 -2.934741125435458e-04
-1.297848705596599e-04 5.538542250355105e-05 -7.005054482878137e-05
-7.418704614782223e-04 8.208319229837668e-04 -2.250594512047677e-04
-1.982686476666606e-03 3.725014450371100e-03 -9.574674668266780e-05
-3.799471026082302e-03 9.465099066923721e-03 5.203452538085074e-04
-5.770943186006294e-03 1.667992824055403e-02 1.409124409942120e-03
-7.213683664264059e-03 2.234598322847731e-02 2.117523721436143e-03
-8.081816155412369e-03 2.586828959242388e-02 2.553542505860040e-03
-1.017315564807031e-02 3.461925403465410e-02 3.609670568905710e-03
-1.385022206158848e-02 5.065976006649675e-02 5.415915761601831e-03
-1.860630731643509e-02 7.220966263753525e-02 7.548845515352731e-03
-2.334201670369618e-02 9.424267609205034e-02 9.377409921922819e-03
-2.663688670303965e-02 1.098062918941898e-01 1.045891184135783e-02
-3.049104950711534e-02 1.281926588228753e-01 1.151814966268283e-02
-3.118345904919506e-02 1.315130120447690e-01 1.168465234555782e-02
-3.227618689729850e-02 1.367624269407159e-01 1.193260877685764e-02
-3.353071244131223e-02 1.428023947264669e-01 1.219489162339160e-02
-3.465965559388318e-02 1.482490190472553e-01 1.241044131036872e-02
-3.539323692363472e-02 1.517935720842798e-01 1.254010201121281e-02
-2.758135750672297e-02 1.142956395387501e-01 1.073916632357275e-02
-2.795863643648355e-02 1.160920816190009e-01 1.084737612452047e-02
-2.855102781326790e-02 1.189162407700073e-01 1.101296218509873e-02
-2.922680330520189e-02 1.221428720457761e-01 1.119539483198384e-02
-2.983118473001012e-02 1.250328995879657e-01 1.135270854732440e-02
-3.022209468451886e-02 1.269042249104253e-01 1.145151383692644e-02
-3.624957641284365e-02 1.559500924332776e-01 1.268202544577646e-02
-3.892020704175003e-02 1.692246342585950e-01 1.306975623336815e-02
-4.300980267817511e-02 1.904184893051738e-01 1.348808028588966e-02
-4.758912711787078e-02 2.152099033714817e-01 1.368041468694114e-02
-5.167416844126449e-02 2.380256040965165e-01 1.359461576986121e-02
-5.433962144673532e-02 2.531439599361633e-01 1.340922852985882e-02
-5.597543655796278e-02 2.624765530527357e-01 1.324673436621593e-02
-5.993600621513773e-02 2.851397902614844e-01 1.270902845042476e-02
-6.646212460231427e-02 3.223024985799048e-01 1.142971904523460e-02
-7.454237312959799e-02 3.672938878560021e-01 9.314572257022036e-03
-8.251496539884107e-02 4.101145252379332e-01 6.824393293474174e-03
-8.811997561564744e-02 4.392100445299649e-01 4.910096317951140e-03
2.796293766200262e-01 2.956023161828575e-01 8.540135905973578e-03
2.393856370841443e-01 2.793223180731947e-01 4.738436910957766e-03
1.844570464976726e-01 2.534348986463292e-01 -3.213689822523236e-05
1.328858499653526e-01 2.236759938931704e-01 -3.910535322994235e-03
9.556927101366908e-02 1.971062653121608e-01 -6.186624276688590e-03
7.534795056741894e-02 1.800505761504900e-01 -7.152439317898995e-03
7.026356893818719e-02 1.753707020712144e-01 -7.357143979966452e-03
6.838413601326643e-02 1.735947702170967e-01 -7.428405784214220e-03
6.551212873027401e-02 1.708300865620419e-01 -7.532469659318863e-03
6.234957973657773e-02 1.677110927649883e-01 -7.640010014657861e-03
5.961973027572387e-02 1.649523750579700e-01 -7.726600979673037e-03
5.790191111479259e-02 1.631832256608672e-01 -7.777998504030492e-03
5.557651706024924e-02 1.607456445790741e-01 -7.843617322508045e-03
4.827192257822888e-02 1.527424883712707e-01 -8.018003410525054e-03
3.791800673673806e-02 1.403498241342449e-01 -8.171075282631612e-03
2.763007954917263e-02 1.264909691446445e-01 -8.189222952368347e-03
1.966691688139433e-02 1.143659982029763e-01 -8.087268123280644e-03
1.508027779121524e-02 1.066671722135651e-01 -7.971724156952575e-03
1.271585016340537e-02 1.024517066991459e-01 -7.891260929124400e-03
8.000380250466455e-03 9.342427649813423e-02 -7.642389577967812e-03
1.975130305607475e-03 8.016617423897376e-02 -7.076393603975717e-03
-3.068784253746126e-03 6.638108361598394e-02 -6.227477256922853e-03
-6.150212117181697e-03 5.523379555657315e-02 -5.341436616152606e-03
-7.518963854943606e-03 4.860606888768149e-02 -4.728718784621222e-03
-7.814902665872148e-03 4.687940184882189e-02 -4.558547549541991e-03
-7.906057850392778e-03 4.631470547410832e-02 -4.501950477545869e-03
-8.041456342141484e-03 4.544165106926934e-02 -4.413534269966490e-03
-8.184809083816746e-03 4.446547541950274e-02 -4.313362888542116e-03
-8.303411607512523e-03 4.360974627052105e-02 -4.224414605619842e-03
-8.375472101526060e-03 4.306474631327550e-02 -4.167212637616657e-03
-8.718625439929739e-03 4.010506032622951e-02 -3.849107001480334e-03
-9.230444084957434e-03 2.971125610841474e-02 -2.635267499380589e-03
-8.024035107082494e-03 1.658008734340966e-02 -9.243285359437081e-04
-4.937754354735036e-03 6.287986510212562e-03 3.866076104124261e-04
-1.889097336841131e-03 1.245973885506957e-03 6.398183731670670e-04
-3.065349940972774e-04 4.842036756225188e-05 1.964227133726126e-04
-2.128861563092388e-04 5.576618393504651e-05 -6.577366608251367e-05
-1.315887490218437e-03 1.329772579965860e-03 -5.272040545012402e-05
-3.795518469799697e-03 6.543219483330087e-03 7.805447772071261e-04
-7.644198128036572e-03 1.688603375346542e-02 2.750695714846429e-03
-1.191394257206507e-02 2.971606819223982e-02 5.245083609469070e-03
-1.505205509863089e-02 3.964908020496105e-02 7.146603434168952e-03
-1.693839803411523e-02 4.576330490392366e-02 8.296881796805877e-03
-2.146400215474498e-02 6.076366026280267e-02 1.104357815023072e-02
-2.932227172795865e-02 8.760967228630551e-02 1.566730514223380e-02
-3.924999831311149e-02 1.224859303394672e-01 2.107845473536329e-02
-4.884353936148267e-02 1.568710436063111e-01 2.572244609819752e-02
-5.534190692506091e-02 1.804423133947021e-01 2.849218023593636e-02
-6.275933120168420e-02 2.075660208273479e-01 3.124423749824956e-02
-6.407094537414659e-02 2.123834563129235e-01 3.168278709019567e-02
-6.612795065520349e-02 2.199503606184698e-01 3.234029488524648e-02
-6.847007853498654e-02 2.285827759580255e-01 3.304299756405804e-02
-7.056003414878931e-02 2.363000046881142e-01 3.362776928900857e-02
-7.190910828806651e-02 2.412883382340600e-01 3.398362803854660e-02
-5.717788782390543e-02 1.871359481189796e-01 2.921533376842955e-02
-5.790796007057952e-02 1.898014819988845e-01 2.949536263718500e-02
-5.905046410168824e-02 1.939770598398491e-01 2.992486325742139e-02
-6.034807334176440e-02 1.987256048782364e-01 3.039961011979475e-02
-6.150344267672825e-02 2.029589197829983e-01 3.081046810031207e-02
-6.224814099286236e-02 2.056900927115439e-01 3.106930286852450e-02
-7.348258617752634e-02 2.471219232439822e-01 3.437808798621056e-02
-7.848124934926193e-02 2.658779406913915e-01 3.550045580378658e-02
-8.638625001273348e-02 2.961442415161205e-01 3.687469352937001e-02
-9.552920581339541e-02 3.318572750749720e-01 3.786975603769882e-02
-1.038595416704320e-01 3.648378981501638e-01 3.824901961643334e-02
-1.093417520754836e-01 3.866797242360214e-01 3.824023956943989e-02
-1.127127408666901e-01 4.001398864315893e-01 3.813820404692692e-02
-1.208621203916342e-01 4.327067811082227e-01 3.760445761620979e-02
-1.341332220263525e-01 4.855766079059048e-01 3.594154259816307e-02
-1.500894986211319e-01 5.484090535269091e-01 3.282046463086097e-02
-1.652029952952685e-01 6.068137424476969e-01 2.893053803655299e-02
-1.754469229259523e-01 6.456730091332871e-01 2.586498774253698e-02
2.842817039678597e-01 3.040964857572513e-01 7.921111107878076e-03
2.435664560904321e-01 2.873527533115851e-01 4.083713995060023e-03
1.879888375630010e-01 2.607891751647320e-01 -7.030598699877544e-04
1.357873114418405e-01 2.303174025882503e-01 -4.556740328135689e-03
9.798083238290523e-02 2.031443037632832e-01 -6.787563395850071e-03
7.746890991299038e-02 1.857076306862990e-01 -7.719198288089757e-03
7.230700596082884e-02 1.809231989012833e-01 -7.914382677464360e-03
7.039834764923880e-02 1.791075380063473e-01 -7.982046484164229e-03
6.748103068621469e-02 1.762809288502631e-01 -8.080538693100436e-03
6.426760899086503e-02 1.730919344973840e-01 -8.181852798578859e-03
6.149294881802547e-02 1.702711531679687e-01 -8.263005609240537e-03
5.974647152801804e-02 1.684621177051732e-01 -8.310956920499990e-03
5.738167707419073e-02 1.659694581776958e-01 -8.371888720079212e-03
4.994819936356976e-02 1.577842734514948e-01 -8.531508067337157e-03
3.939489311082156e-02 1.451049959639978e-01 -8.664307239371283e-03
2.888142114119119e-02 1.309162013284877e-01 -8.665129516986170e-03
2.071580212700941e-02 1.184917093441438e-01 -8.554331897874690e-03
1.599679426440492e-02 1.105961804635033e-01 -8.437015416205895e-03
1.355880124139297e-02 1.062705047155132e-01 -8.356670074938677e-03
8.692321932204816e-03 9.699985531700028e-02 -8.103840574172239e-03
2.464098951398430e-03 8.336549864306031e-02 -7.519892962738695e-03
-2.765296499904757e-03 6.916280040003742e-02 -6.636219018366418e-03
-5.975772277382441e-03 5.765561077571391e-02 -5.709350630283438e-03
-7.411490781696894e-03 5.080325583579381e-02 -5.066667679106018e-03
-7.723595123520166e-03 4.901664078212664e-02 -4.887967605014865e-03
-7.819918102547285e-03 4.843220454613506e-02 -4.828515318996196e-03
-7.963189254991010e-03 4.752849857564700e-02 -4.735620445567079e-03
-8.115174400368907e-03 4.651785758912075e-02 -4.630348437046905e-03
-8.241194652535921e-03 4.563174500176814e-02 -4.536847712030223e-03
-8.317905746096532e-03 4.506731000684128e-02 -4.476706656635798e-03
-8.685293118366966e-03 4.200090156610481e-02 -4.142095658977496e-03
-9.267467966971643e-03 3.121483901160760e-02 -2.862805130998680e-03
-8.110151772832808e-03 1.753747384275139e-02 -1.051780454247364e-03
-5.015303433782647e-03 6.747380815174564e-03 3.501173688302828e-04
-1.926995962700434e-03 1.393422204693184e-03 6.450206041659357e-04
-3.139010484225491e-04 6.992064669142373e-05 2.006909392715528e-04
-2.149240965637622e-04 5.836253842839145e-05 -6.501033807992940e-05
-1.331516264051980e-03 1.371476627417878e-03 -4.729423368310393e-05
-3.848481846015661e-03 6.730537196013686e-03 7.975904198751493e-04
-7.760555821446358e-03 1.734648249742476e-02 2.785577512709025e-03
-1.210279776216683e-02 3.049926923965834e-02 5.298268987003141e-03
-1.529447646532572e-02 4.067277105461164e-02 7.212050561813399e-03
-1.721296209154566e-02 4.693142632310249e-02 8.369192364199307e-03
-2.181521609297854e-02 6.227539201891996e-02 1.113077242365179e-02
-2.980417340847241e-02 8.970107384161735e-02 1.577495021506081e-02
-3.989124096599395e-02 1.252669697681847e-01 2.120193673371951e-02
-4.963152234822621e-02 1.602637803571642e-01 2.585027331688217e-02
-5.622478936697561e-02 1.842150713423106e-01 2.861658134683864e-02
-6.374571942825147e-02 2.117356276059338e-01 3.135815611086912e-02
-6.507507509274602e-02 2.166189245195091e-01 3.179409920846332e-02
-6.715955263345497e-02 2.242864134372679e-01 3.244705221219668e-02
-6.953242795088643e-02 2.330292545273465e-01 3.314386468870545e-02
-7.164933132027196e-02 2.408412521019204e-01 3.372273714534835e-02
-7.301555066306498e-02 2.458888353530722e-01 3.407446091633126e-02
-5.808688154482622e-02 1.910107063493021e-01 2.933780389839313e-02
-5.882724847299514e-02 1.937161222469138e-01 2.961694485047239e-02
-5.998576067588623e-02 1.979533279816351e-01 3.004491775733698e-02
-6.130139855852124e-02 2.027706942450610e-01 3.051772357252602e-02
-6.247268193469346e-02 2.070642234751006e-01 3.092666748693951e-02
-6.322756791889073e-02 2.098336713896812e-01 3.118417510891369e-02
-7.460910215326977e-02 2.517904549855520e-01 3.446379182535964e-02
-7.967659517070014e-02 2.707668706701522e-01 3.556802749577592e-02
-8.770557964805037e-02 3.013937564646043e-01 3.690829515105243e-02
-9.701300758459142e-02 3.375380883580710e-01 3.785693133687396e-02
-1.055105525463396e-01 3.709207949648957e-01 3.818826230062378e-02
-1.111107339688198e-01 3.930301974079340e-01 3.814547662607914e-02
-1.145570725688014e-01 4.066555899014995e-01 3.802169213789952e-02
-1.228965142519642e-01 4.396228404723030e-01 3.743310629177010e-02
-1.364972526089618e-01 4.931426205956789e-01 3.567553563406101e-02
-1.528746741969265e-01 5.567441495800756e-01 3.243498008692391e-02
-1.684041286759186e-01 6.158575563717463e-01 2.842904212834974e-02
-1.789362535857508e-01 6.551839861042488e-01 2.528437391645078e-02
3.163118887845617e-02 7.060797652193124e-02 1.637232518591603e-03
2.823617349598362e-02 6.859694716381293e-02 1.270092500814002e-03
2.345941355042735e-02 6.542160273344272e-02 7.184700071629635e-04
1.870010768963182e-02 6.181149245013429e-02 8.727012714970783e-05
1.493316492808261e-02 5.863136173494210e-02 -5.169754674358984e-04
1.268617188862076e-02 5.661489103357553e-02 -9.439406660352034e-04
2.935582825466021e-03 4.760996205000911e-02 -3.687744715376695e-03
2.635501356818670e-03 4.734991641666575e-02 -3.799099542865392e-03
2.166534357523009e-03 4.694807203837104e-02 -3.976344439939439e-03
1.634383250861182e-03 4.649918279681231e-02 -4.182152379126336e-03
1.160544494305249e-03 4.610617659625815e-02 -4.369513796444124e-03
8.549245120801352e-04 4.585617874748282e-02 -4.492369706955657e-03
1.181822802866139e-02 5.581714540373761e-02 -1.125576222971603e-03
1.053100746632241e-02 5.461979999064603e-02 -1.414412101970797e-03
8.577148989763361e-03 5.278382875478738e-02 -1.901877389423490e-03
6.420540035106170e-03 5.076181950452874e-02 -2.515710651323388e-03
4.529615243243690e-03 4.902525277062308e-02 -3.123749568722189e-03
3.313941568107714e-03 4.794091651507537e-02 -3.549660973227731e-03
1.079967834997511e-01 9.018087298508330e-02 1.101413606158275e-02
9.277255291072284e-02 8.844879491084989e-02 8.865612840084580e-03
7.249715741782836e-02 8.499328521698124e-02 6.210640851188387e-03
5.404606298743198e-02 8.017832923025969e-02 4.029445873992898e-03
4.105002428427551e-02 7.530292284894480e-02 2.624964833863430e-03
3.410141463903527e-02 7.195661880611887e-02 1.898076707961494e-03
-1.081514801561057e-02 -5.344364182747197e-03 -4.285669475628140e-03
-9.833107424902093e-03 -6.862660091306205e-03 -3.650901160909825e-03
-7.939575887584566e-03 -7.962298426551717e-03 -2.648692844452682e-03
-5.289122506973679e-03 -7.059115631585344e-03 -1.545723698171741e-03
-2.509256638746390e-03 -4.068636797704084e-03 -6.429349396981365e-04
-5.195766145079227e-04 -9.370357050485500e-04 -1.211928991544653e-04
3.761785560209008e-04 4.545886375009245e-02 -4.685487062381810e-03
-1.175630161511676e-03 4.398968369393896e-02 -5.289058297730520e-03
-3.388500719427312e-03 4.134362060037711e-02 -6.081509436588917e-03
-5.592917871385494e-03 3.790488633753375e-02 -6.771987927697509e-03
-7.289149724419852e-03 3.453374984667856e-02 -7.214431127399834e-03
-8.253611755976609e-03 3.224026171417349e-02 -7.420091789681393e-03
-8.679364786244981e-03 3.111806470545675e-02 -7.497555647404397e-03
-9.435594416151494e-03 2.892124707794730e-02 -7.610520342854699e-03
-1.045751092104352e-02 2.540947180944575e-02 -7.697719393949143e-03
-1.138672491741560e-02 2.136813936256432e-02 -7.675372503580746e-03
-1.201433653898643e-02 1.777829439827960e-02 -7.557807958399110e-03
-1.232229610260788e-02 1.549272233433308e-02 -7.437984791572205e-03
-1.247558533269100e-02 1.409876727003301e-02 -7.348044986880353e-03
-1.273110153557422e-02 1.082705106943782e-02 -7.086323927357085e-03
-1.282186236898519e-02 5.997111320105386e-03 -6.562027686431549e-03
-1.248683194209654e-02 1.111713817397053e-03 -5.828764971028022e-03
-1.181527454728054e-02 -2.532207262514796e-03 -5.084018006172641e-03
-1.120414045707185e-02 -4.455584423839754e-03 -4.571674991886709e-03
-6.429851379451401e-03 2.592703787320361e-02 3.343916760815802e-03
-6.798310012965492e-03 2.798121675773552e-02 3.590132971805104e-03
-7.388404106965951e-03 3.132860224166140e-02 3.980574967130224e-03
-8.078389716454359e-03 3.532258860072135e-02 4.429141828207861e-03
-8.710278718865316e-03 3.904658465542382e-02 4.830680291295408e-03
-9.126252377315902e-03 4.152891762241051e-02 5.089511649977396e-03
-3.372178375649015e-03 1.037500140590764e-02 1.318361229056819e-03
-3.748563125737236e-03 1.210215300614703e-02 1.556480417814754e-03
-4.360983231330273e-03 1.504668869638542e-02 1.955621686377640e-03
-5.090829613478065e-03 1.873981684349946e-02 2.442588900930076e-03
-5.771019320969906e-03 2.233178480279058e-02 2.900795731527239e-03
-6.224448726654175e-03 2.479497726491081e-02 3.206064287507360e-03
-8.449922323792991e-05 6.116569131098260e-05 -7.509050167442410e-06
-4.423499460576297e-04 5.048933829701618e-04 2.931911911474572e-06
-1.058739079720955e-03 1.821922969805878e-03 1.409656495354739e-04
-1.841328996842528e-03 4.212022822437100e-03 4.576593411158569e-04
-2.611118209122965e-03 7.114110162432685e-03 8.629579650012431e-04
-3.143363585213665e-03 9.359829090138272e-03 1.177242103636900e-03
-1.409779129805622e-02 7.253547014879203e-02 7.757494004113852e-03
-1.438698401667549e-02 7.439378271648023e-02 7.885617158212455e-03
-1.484276765755732e-02 7.733124430398641e-02 8.081105453680237e-03
-1.536519638563671e-02 8.071037636841139e-02 8.295409050063540e-03
-1.583463014058850e-02 8.375694968808928e-02 8.479006078133011e-03
-1.613934114923654e-02 8.573930719024853e-02 8.593610507400484e-03
-9.378801975382212e-03 4.304698682222735e-02 5.244359891189987e-03
-9.982175831092732e-03 4.670484674868619e-02 5.606868127504328e-03
-1.095396801454684e-02 5.267842263822736e-02 6.167148611940121e-03
-1.209810251494103e-02 5.982213733982533e-02 6.786677473535008e-03
-1.315263751230167e-02 6.649473427897379e-02 7.316902866751462e-03
-1.385007849282704e-02 7.094728436905179e-02 7.645242625073934e-03
-1.985761090579441e-02 1.129976236622634e-01 9.744364358237334e-03