<?xml version="1.0" ?> 
<!-- 
# vtk DataFile Version 3.0
-->
<VTKFile type="UnstructuredGrid" version="0.1" compressor="vtkZLibDataCompressor" byte_order="LittleEndian">
  <UnstructuredGrid>
    <FieldData>
      <DataArray type="Float64" Name="TIME" NumberOfTuples="1" format="ascii">
1.000000010000000e+00 
      </DataArray>
      <DataArray type="Float64" Name="sum_coupling_force_beam" NumberOfTuples="1" NumberOfComponents="3" format="ascii">
7.365109722510266e-02 5.435248142982769e-02 9.396089862818418e-04 
      </DataArray>
      <DataArray type="Float64" Name="sum_coupling_force_solid" NumberOfTuples="1" NumberOfComponents="3" format="ascii">
-7.365109722510269e-02 -5.435248142982765e-02 -9.396089862818420e-04 
      </DataArray>
      <DataArray type="Float64" Name="sum_coupling_moment_beam" NumberOfTuples="1" NumberOfComponents="3" format="ascii">
-2.533059437612354e-02 8.318421957499079e-02 8.572542821747623e-04 
      </DataArray>
      <DataArray type="Float64" Name="sum_coupling_moment_solid" NumberOfTuples="1" NumberOfComponents="3" format="ascii">
5.464117913891121e-01 -7.982942820734273e-01 3.860122140113057e-02 
      </DataArray>
    </FieldData>

    <Piece NumberOfPoints="927" NumberOfCells="0" >
      <Points>
        <DataArray type="Float64" NumberOfComponents="3" format="ascii">
7.000000000000000e-01 0.000000000000000e+00 0.000000000000000e+00
6.062177826489999e-01 3.500000000000000e-01 0.000000000000000e+00
6.062177826489999e-01 3.500000000000000e-01 5.000000000000000e-01
7.000000000000000e-01 0.000000000000000e+00 5.000000000000000e-01
1.000000000000000e+00 0.000000000000000e+00 0.000000000000000e+00
8.660254037839999e-01 5.000000000000000e-01 0.000000000000000e+00
8.660254037839999e-01 5.000000000000000e-01 5.000000000000000e-01
1.000000000000000e+00 0.000000000000000e+00 5.000000000000000e-01
3.500000000000000e-01 6.062177826489999e-01 0.000000000000000e+00
3.500000000000000e-01 6.062177826489999e-01 5.000000000000000e-01
5.000000000000000e-01 8.660254037839999e-01 0.000000000000000e+00
5.000000000000000e-01 8.660254037839999e-01 5.000000000000000e-01
0.000000000000000e+00 7.000000000000000e-01 0.000000000000000e+00
0.000000000000000e+00 7.000000000000000e-01 5.000000000000000e-01
0.000000000000000e+00 1.000000000000000e+00 0.000000000000000e+00
0.000000000000000e+00 1.000000000000000e+00 5.000000000000000e-01
6.062177826489999e-01 3.500000000000000e-01 1.000000000000000e+00
7.000000000000000e-01 0.000000000000000e+00 1.000000000000000e+00
8.660254037839999e-01 5.000000000000000e-01 1.000000000000000e+00
1.000000000000000e+00 0.000000000000000e+00 1.000000000000000e+00
3.500000000000000e-01 6.062177826489999e-01 1.000000000000000e+00
5.000000000000000e-01 8.660254037839999e-01 1.000000000000000e+00
0.000000000000000e+00 7.000000000000000e-01 1.000000000000000e+00
0.000000000000000e+00 1.000000000000000e+00 1.000000000000000e+00
6.062177826489999e-01 3.500000000000000e-01 1.500000000000000e+00
7.000000000000000e-01 0.000000000000000e+00 1.500000000000000e+00
8.660254037839999e-01 5.000000000000000e-01 1.500000000000000e+00
1.000000000000000e+00 0.000000000000000e+00 1.500000000000000e+00
3.500000000000000e-01 6.062177826489999e-01 1.500000000000000e+00
5.000000000000000e-01 8.660254037839999e-01 1.500000000000000e+00
0.000000000000000e+00 7.000000000000000e-01 1.500000000000000e+00
0.000000000000000e+00 1.000000000000000e+00 1.500000000000000e+00
0.000000000000000e+00 0.000000000000000e+00 3.500000000000000e+00
0.000000000000000e+00 0.000000000000000e+00 3.000000000000000e+00
0.000000000000000e+00 3.000000000000000e-01 3.000000000000000e+00
0.000000000000000e+00 3.000000000000000e-01 3.500000000000000e+00
5.000000000000000e-01 0.000000000000000e+00 3.500000000000000e+00
5.000000000000000e-01 0.000000000000000e+00 3.000000000000000e+00
5.000000000000000e-01 3.000000000000000e-01 3.000000000000000e+00
5.000000000000000e-01 3.000000000000000e-01 3.500000000000000e+00
0.000000000000000e+00 0.000000000000000e+00 2.500000000000000e+00
0.000000000000000e+00 3.000000000000000e-01 2.500000000000000e+00
5.000000000000000e-01 0.000000000000000e+00 2.500000000000000e+00
5.000000000000000e-01 3.000000000000000e-01 2.500000000000000e+00
1.000000000000000e+00 0.000000000000000e+00 3.500000000000000e+00
1.000000000000000e+00 0.000000000000000e+00 3.000000000000000e+00
1.000000000000000e+00 3.000000000000000e-01 3.000000000000000e+00
1.000000000000000e+00 3.000000000000000e-01 3.500000000000000e+00
1.000000000000000e+00 0.000000000000000e+00 2.500000000000000e+00
1.000000000000000e+00 3.000000000000000e-01 2.500000000000000e+00
1.500000000000000e+00 0.000000000000000e+00 3.500000000000000e+00
1.500000000000000e+00 0.000000000000000e+00 3.000000000000000e+00
1.500000000000000e+00 3.000000000000000e-01 3.000000000000000e+00
1.500000000000000e+00 3.000000000000000e-01 3.500000000000000e+00
1.500000000000000e+00 0.000000000000000e+00 2.500000000000000e+00
1.500000000000000e+00 3.000000000000000e-01 2.500000000000000e+00
2.000000000000000e+00 0.000000000000000e+00 3.500000000000000e+00
2.000000000000000e+00 0.000000000000000e+00 3.000000000000000e+00
2.000000000000000e+00 3.000000000000000e-01 3.000000000000000e+00
2.000000000000000e+00 3.000000000000000e-01 3.500000000000000e+00
2.000000000000000e+00 0.000000000000000e+00 2.500000000000000e+00
2.000000000000000e+00 3.000000000000000e-01 2.500000000000000e+00
7.000000000000000e-01 0.000000000000000e+00 5.000000000000000e+00
6.062177826489999e-01 3.500000000000000e-01 5.000000000000000e+00
6.062177826489999e-01 3.500000000000000e-01 5.500000000000000e+00
7.000000000000000e-01 0.000000000000000e+00 5.500000000000000e+00
1.000000000000000e+00 0.000000000000000e+00 5.000000000000000e+00
8.660254037839999e-01 5.000000000000000e-01 5.000000000000000e+00
8.660254037839999e-01 5.000000000000000e-01 5.500000000000000e+00
1.000000000000000e+00 0.000000000000000e+00 5.500000000000000e+00
6.761480784020000e-01 1.811733315720000e-01 5.000000000000000e+00
6.062177826489999e-01 3.500000000000000e-01 5.250000000000000e+00
6.761480784020000e-01 1.811733315720000e-01 5.500000000000000e+00
7.000000000000000e-01 0.000000000000000e+00 5.250000000000000e+00
8.500000000000000e-01 0.000000000000000e+00 5.000000000000000e+00
7.361215932170000e-01 4.250000000000000e-01 5.000000000000000e+00
7.361215932170000e-01 4.250000000000000e-01 5.500000000000000e+00
8.500000000000000e-01 0.000000000000000e+00 5.500000000000000e+00
9.659258262890000e-01 2.588190451030000e-01 5.000000000000000e+00
8.660254037839999e-01 5.000000000000000e-01 5.250000000000000e+00
9.659258262890000e-01 2.588190451030000e-01 5.500000000000000e+00
1.000000000000000e+00 0.000000000000000e+00 5.250000000000000e+00
3.500000000000000e-01 6.062177826489999e-01 5.000000000000000e+00
3.500000000000000e-01 6.062177826489999e-01 5.500000000000000e+00
5.000000000000000e-01 8.660254037839999e-01 5.000000000000000e+00
5.000000000000000e-01 8.660254037839999e-01 5.500000000000000e+00
4.949747468310000e-01 4.949747468310000e-01 5.000000000000000e+00
3.500000000000000e-01 6.062177826489999e-01 5.250000000000000e+00
4.949747468310000e-01 4.949747468310000e-01 5.500000000000000e+00
4.250000000000000e-01 7.361215932170000e-01 5.000000000000000e+00
4.250000000000000e-01 7.361215932170000e-01 5.500000000000000e+00
7.071067811870000e-01 7.071067811870000e-01 5.000000000000000e+00
5.000000000000000e-01 8.660254037839999e-01 5.250000000000000e+00
7.071067811870000e-01 7.071067811870000e-01 5.500000000000000e+00
0.000000000000000e+00 7.000000000000000e-01 5.000000000000000e+00
0.000000000000000e+00 7.000000000000000e-01 5.500000000000000e+00
0.000000000000000e+00 1.000000000000000e+00 5.000000000000000e+00
0.000000000000000e+00 1.000000000000000e+00 5.500000000000000e+00
1.811733315720000e-01 6.761480784020000e-01 5.000000000000000e+00
0.000000000000000e+00 7.000000000000000e-01 5.250000000000000e+00
1.811733315720000e-01 6.761480784020000e-01 5.500000000000000e+00
0.000000000000000e+00 8.500000000000000e-01 5.000000000000000e+00
0.000000000000000e+00 8.500000000000000e-01 5.500000000000000e+00
2.588190451030000e-01 9.659258262890000e-01 5.000000000000000e+00
0.000000000000000e+00 1.000000000000000e+00 5.250000000000000e+00
2.588190451030000e-01 9.659258262890000e-01 5.500000000000000e+00
6.062177826489999e-01 3.500000000000000e-01 6.000000000000000e+00
7.000000000000000e-01 0.000000000000000e+00 6.000000000000000e+00
8.660254037839999e-01 5.000000000000000e-01 6.000000000000000e+00
1.000000000000000e+00 0.000000000000000e+00 6.000000000000000e+00
6.062177826489999e-01 3.500000000000000e-01 5.750000000000000e+00
6.761480784020000e-01 1.811733315720000e-01 6.000000000000000e+00
7.000000000000000e-01 0.000000000000000e+00 5.750000000000000e+00
7.361215932170000e-01 4.250000000000000e-01 6.000000000000000e+00
8.500000000000000e-01 0.000000000000000e+00 6.000000000000000e+00
8.660254037839999e-01 5.000000000000000e-01 5.750000000000000e+00
9.659258262890000e-01 2.588190451030000e-01 6.000000000000000e+00
1.000000000000000e+00 0.000000000000000e+00 5.750000000000000e+00
3.500000000000000e-01 6.062177826489999e-01 6.000000000000000e+00
5.000000000000000e-01 8.660254037839999e-01 6.000000000000000e+00
3.500000000000000e-01 6.062177826489999e-01 5.750000000000000e+00
4.949747468310000e-01 4.949747468310000e-01 6.000000000000000e+00
4.250000000000000e-01 7.361215932170000e-01 6.000000000000000e+00
5.000000000000000e-01 8.660254037839999e-01 5.750000000000000e+00
7.071067811870000e-01 7.071067811870000e-01 6.000000000000000e+00
0.000000000000000e+00 7.000000000000000e-01 6.000000000000000e+00
0.000000000000000e+00 1.000000000000000e+00 6.000000000000000e+00
0.000000000000000e+00 7.000000000000000e-01 5.750000000000000e+00
1.811733315720000e-01 6.761480784020000e-01 6.000000000000000e+00
0.000000000000000e+00 8.500000000000000e-01 6.000000000000000e+00
0.000000000000000e+00 1.000000000000000e+00 5.750000000000000e+00
[...]
  <PointData>
        <DataArray type="Float64" Name="displacement" NumberOfComponents="3" format="ascii">
2.341463232037568e-01 1.045162049618352e-01 -2.135853239155111e-02
1.089014413401288e-01 5.963522216327775e-02 -1.115069486342837e-02
8.463827711901423e-02 6.348281783410141e-02 -1.435753306604838e-02
1.702855603533474e-01 9.045835831619412e-02 -2.504025668376713e-02
2.337079807396167e-01 2.002922894074591e-01 4.792717901819937e-03
5.396267000104095e-02 1.181158970000368e-01 -6.420042359095627e-03
4.458860500746255e-02 1.141362031945000e-01 -8.358523661611933e-03
1.568892976007270e-01 1.617286526515889e-01 4.827962291010450e-03
2.896125741467392e-02 1.532758366518030e-02 3.895395690747447e-04
2.787387437034910e-02 2.251452545952201e-02 -9.257879197391090e-03
-1.131974637541893e-02 2.624886604139223e-02 -1.060939678490949e-02
-7.825520002099637e-03 3.728127136049429e-02 -7.636322753806274e-03
0.000000000000000e+00 0.000000000000000e+00 0.000000000000000e+00
0.000000000000000e+00 0.000000000000000e+00 0.000000000000000e+00
0.000000000000000e+00 0.000000000000000e+00 0.000000000000000e+00
0.000000000000000e+00 0.000000000000000e+00 0.000000000000000e+00
6.719662600207613e-02 6.556701984226697e-02 -1.188730399548573e-02
1.246344813311007e-01 8.958021911928386e-02 -1.661988480152310e-02
3.721683923705769e-02 1.118832102342562e-01 -4.964629940002459e-03
1.201039626778969e-01 1.390916805759047e-01 2.150521297071772e-04
2.093840193795576e-02 2.124035964517513e-02 -3.504998822094841e-03
-1.476931659637295e-02 2.885701043479608e-02 -1.026944642918183e-02
0.000000000000000e+00 0.000000000000000e+00 0.000000000000000e+00
0.000000000000000e+00 0.000000000000000e+00 0.000000000000000e+00
5.238774712177497e-02 7.122820643429648e-02 -9.112264678913217e-03
9.758659828477870e-02 8.155958415278289e-02 -1.615316863944147e-02
3.181054026038094e-02 9.623730557200202e-02 -4.096391048926356e-03
9.444677658239210e-02 1.233950966344368e-01 -1.503109534364925e-03
2.821582700199157e-02 4.722960540498687e-02 -9.708820171994975e-04
2.121927726277016e-03 6.930212188735296e-02 -1.277654120673385e-02
0.000000000000000e+00 0.000000000000000e+00 0.000000000000000e+00
0.000000000000000e+00 0.000000000000000e+00 0.000000000000000e+00
0.000000000000000e+00 0.000000000000000e+00 0.000000000000000e+00
0.000000000000000e+00 0.000000000000000e+00 0.000000000000000e+00
0.000000000000000e+00 0.000000000000000e+00 0.000000000000000e+00
0.000000000000000e+00 0.000000000000000e+00 0.000000000000000e+00
1.712993072014009e-02 4.902652635445978e-02 9.700095713369146e-03
1.951944248747680e-02 3.869572518207088e-02 1.552004103372948e-02
-1.518126915498864e-02 3.613321025051557e-02 2.609955661678910e-03
-2.944252440397896e-02 4.623739823916965e-02 7.509994921551573e-03
0.000000000000000e+00 0.000000000000000e+00 0.000000000000000e+00
0.000000000000000e+00 0.000000000000000e+00 0.000000000000000e+00
2.422178132690671e-02 1.179700214080521e-02 2.300689232712538e-02
-1.495632666628812e-03 5.186376104467643e-03 1.926626976261826e-04
2.012701031885251e-02 1.605508637527295e-01 3.134129910732231e-02
2.900116779917904e-02 1.221585581091252e-01 3.594824686213606e-02
-2.860846946983417e-02 1.145573551952587e-01 1.115004742107186e-02
-5.160307848492524e-02 1.507352059017316e-01 9.222309310932930e-03
4.025626141474839e-02 7.854482752942120e-02 4.124893713640773e-02
-8.475594309384157e-03 7.325843056671180e-02 1.281501471116936e-02
1.365971318966470e-02 3.027010315387005e-01 4.892574147355384e-02
2.635597762911753e-02 2.376963951785143e-01 5.473197958898354e-02
-4.402099490171715e-02 2.266596192142043e-01 1.574931153885762e-02
-6.689433192692505e-02 2.882879795274670e-01 1.196120646760291e-02
4.052718484521371e-02 1.729101405383558e-01 5.993042527355394e-02
-2.123483362774057e-02 1.638611611557292e-01 1.870837675631511e-02
-3.353752364509105e-03 4.558145858191803e-01 5.690983702667986e-02
1.431101446380175e-02 3.655681733542394e-01 6.589455225975760e-02
-6.164534096560982e-02 3.516954986489361e-01 1.405352988312546e-02
-8.864680643006984e-02 4.449082106815286e-01 4.801453160907750e-03
3.115588802307522e-02 2.810117250461853e-01 7.133790661069953e-02
-3.390463599047089e-02 2.707287878146963e-01 2.207064620989959e-02
3.248430377421617e-01 1.865881290545836e-01 -4.460415700161265e-02
1.661847119584741e-01 1.197054137596687e-01 -2.059313717504861e-02
1.267709298022561e-01 9.836398721825035e-02 -2.872969657732209e-02
2.448236996961436e-01 1.465771082628984e-01 -4.949683723155636e-02
3.159608252138070e-01 3.012028015531716e-01 7.240464474491715e-03
8.443862805441588e-02 2.100646537413120e-01 1.913070148823582e-03
6.614329588917273e-02 1.699050124743625e-01 -1.011741165261882e-02
2.275675941131804e-01 2.473908282989410e-01 -7.177187585175724e-03
2.447099812157005e-01 1.625850400913725e-01 -3.196626303745859e-02
1.485739531015756e-01 1.068089940210837e-01 -2.683424743275878e-02
1.835130426560773e-01 1.285198698969539e-01 -4.052378464628438e-02
2.876018691085406e-01 1.635992002816355e-01 -4.813563768963049e-02
3.166588790141407e-01 2.470786114289882e-01 -1.893909105146652e-02
1.252713288887712e-01 1.642095334090561e-01 -9.424013733550621e-03
9.541512062629173e-02 1.343029982578966e-01 -1.773855593490944e-02
2.367931142183424e-01 1.963698050744337e-01 -2.933108129115646e-02
2.003870074517352e-01 2.683772584035917e-01 6.092204532058335e-03
7.667701817663101e-02 1.896143409766531e-01 -5.697904956192299e-03
1.404312863756612e-01 2.195953920011441e-01 -3.057842284857092e-03
2.669688706535183e-01 2.759092026405577e-01 -2.676372165751058e-03
4.760316499993970e-02 2.960298414978219e-02 -1.045346690712461e-03
4.321688801225892e-02 3.145492289508324e-02 -1.041739487662268e-02
-1.366751457218526e-02 5.600993648848721e-02 -9.226897026537157e-03
-9.897396015267993e-03 5.472314588222982e-02 -6.196159888302910e-03
9.710925919358447e-02 7.169950754413930e-02 -8.890749770584808e-03
4.843055621239286e-02 3.220408976385671e-02 -7.857598458359528e-03
7.974142936549020e-02 6.430556222706442e-02 -1.918477233224694e-02
1.605516665936447e-02 4.007317240821805e-02 -5.624034653222428e-03
1.610466281590434e-02 4.029168627824850e-02 -8.133975944778162e-03
1.369328490175084e-02 1.297433609525527e-01 -5.046552164506238e-03
-1.140646447355911e-02 5.745928524355061e-02 -5.960288756402954e-03
1.534083551628099e-02 1.127133041509225e-01 -8.812398965978718e-03
0.000000000000000e+00 0.000000000000000e+00 0.000000000000000e+00
0.000000000000000e+00 0.000000000000000e+00 0.000000000000000e+00
0.000000000000000e+00 0.000000000000000e+00 0.000000000000000e+00
0.000000000000000e+00 0.000000000000000e+00 0.000000000000000e+00
1.741486096853383e-02 5.909875719534457e-03 3.030405752671175e-03
0.000000000000000e+00 0.000000000000000e+00 0.000000000000000e+00
1.771486520172656e-02 9.250123651013267e-03 -4.900780165345427e-03
0.000000000000000e+00 0.000000000000000e+00 0.000000000000000e+00
0.000000000000000e+00 0.000000000000000e+00 0.000000000000000e+00
-1.198691117480165e-02 1.107750575478909e-02 -6.587993857914521e-03
0.000000000000000e+00 0.000000000000000e+00 0.000000000000000e+00
-1.054351094739306e-02 1.394032258308679e-02 -3.848224326593875e-03
9.176068279053143e-02 7.673824535056457e-02 -2.950662362742098e-02
1.802581106625813e-01 1.098126194712404e-01 -5.156727910668468e-02
4.870124904202247e-02 1.332738768945837e-01 -4.785989304431309e-03
1.709121322984712e-01 1.861146690065207e-01 -2.217310303633475e-02
1.084039887324484e-01 8.909220520611454e-02 -2.915111990483175e-02
1.340091096876743e-01 9.792974697975237e-02 -3.962009218299684e-02
2.082100655307836e-01 1.292237907088185e-01 -5.077561818537741e-02
6.994351582924696e-02 1.047574306575354e-01 -1.750252149976052e-02
1.752155341502867e-01 1.476272180156243e-01 -3.701132910792262e-02
5.815183511861372e-02 1.542413717232543e-01 -6.928541313154692e-03
1.042939043575562e-01 1.676990122973430e-01 -8.875251073665122e-03
1.955171282312909e-01 2.150569481056712e-01 -1.487878288746890e-02
3.222671287280507e-02 2.679041563135855e-02 -1.344944680762245e-02
-8.973288571841875e-03 4.551737999276942e-02 -4.451308833105252e-03
3.796490519811913e-02 3.052858615163307e-02 -1.194844361091774e-02
5.805711441579951e-02 5.208774433835568e-02 -2.100092755331611e-02
1.142596473728665e-02 3.453013569147600e-02 -8.766904502573242e-03
-8.126593509677723e-03 5.212719888436843e-02 -6.400595534042837e-03
1.083922387695943e-02 8.990249007327247e-02 -4.736288964753868e-03
0.000000000000000e+00 0.000000000000000e+00 0.000000000000000e+00
0.000000000000000e+00 0.000000000000000e+00 0.000000000000000e+00
0.000000000000000e+00 0.000000000000000e+00 0.000000000000000e+00
1.356260100198978e-02 8.550118029963633e-03 -6.294330826657011e-03
0.000000000000000e+00 0.000000000000000e+00 0.000000000000000e+00
0.000000000000000e+00 0.000000000000000e+00 0.000000000000000e+00
-9.826642367783118e-03 1.279051549858973e-02 -2.476395010575296e-03
6.555936377678868e-02 4.250647986016187e-02 -3.229993063098983e-02
1.399040125026499e-01 6.879273443808671e-02 -5.344075664891772e-02
3.099180130341950e-02 9.152408902360984e-02 -5.463826545535625e-03
1.323880971109475e-01 1.350771428421872e-01 -2.831987632938909e-02
7.793983290190371e-02 6.137457813012193e-02 -3.042559981198334e-02
1.003553505100807e-01 5.931087109441136e-02 -4.162978776237397e-02
1.584160491773681e-01 8.958226695929758e-02 -5.214615507552522e-02
4.791165785732636e-02 6.681483122939237e-02 -1.854974170625781e-02
1.362111473145889e-01 1.018274483225431e-01 -4.098949481839460e-02
4.097799277115140e-02 1.118012635191319e-01 -5.217986343740398e-03
7.627596838389777e-02 1.196869665788820e-01 -1.347660273141523e-02
1.504278953871096e-01 1.588500081435561e-01 -2.620985901035289e-02
2.067292991391747e-02 8.589431438147506e-03 -1.694092765799617e-02
-7.270153401582287e-03 2.247483866246031e-02 -1.707243735561448e-04
2.507057434456323e-02 2.057717101405441e-02 -1.447305298608707e-02
3.939612366021922e-02 2.428571277241290e-02 -2.515979096217217e-02
6.338876169561925e-03 1.432448917785619e-02 -8.464871535804053e-03
-7.643955774693809e-03 3.647713558850393e-02 -2.149811836841105e-03
2.767107152504738e-03 5.538817730040292e-02 -1.714395420549544e-03
0.000000000000000e+00 0.000000000000000e+00 0.000000000000000e+00
0.000000000000000e+00 0.000000000000000e+00 0.000000000000000e+00
0.000000000000000e+00 0.000000000000000e+00 0.000000000000000e+00
8.683273802398320e-03 1.421871102781933e-03 -9.484129419633992e-03
0.000000000000000e+00 0.000000000000000e+00 0.000000000000000e+00
0.000000000000000e+00 0.000000000000000e+00 0.000000000000000e+00
-4.444137442031114e-03 6.234848280079612e-03 1.745793773640089e-03
0.000000000000000e+00 0.000000000000000e+00 0.000000000000000e+00
0.000000000000000e+00 0.000000000000000e+00 0.000000000000000e+00
0.000000000000000e+00 0.000000000000000e+00 0.000000000000000e+00
0.000000000000000e+00 0.000000000000000e+00 0.000000000000000e+00
1.954179306014125e-02 6.407122986466629e-02 1.127021519574008e-02
2.970394677436632e-02 6.097487660212543e-02 1.894706391490349e-02
-2.823320325134022e-02 5.420001898652606e-02 9.307748725563145e-03
-4.614784533730504e-02 5.699602135978796e-02 1.461385296353254e-02
0.000000000000000e+00 0.000000000000000e+00 0.000000000000000e+00
0.000000000000000e+00 0.000000000000000e+00 0.000000000000000e+00
0.000000000000000e+00 0.000000000000000e+00 0.000000000000000e+00
0.000000000000000e+00 0.000000000000000e+00 0.000000000000000e+00
1.171875907252862e-02 1.564404233668813e-02 1.067280883387004e-03
1.654396606979330e-02 1.938529186597909e-02 7.018771402870819e-03
-1.415359850337774e-02 1.667200552352524e-02 2.412849225391886e-03
-2.277471968819978e-02 1.490678875089304e-02 9.412694552962550e-03
2.600251448123016e-02 6.587406558587988e-02 1.504553464191380e-02
8.251601111716102e-04 5.579203966254927e-02 1.458289550784597e-02
-3.763286626680305e-02 5.879137377017563e-02 1.081914331164504e-02
-1.316119796279672e-02 5.863498540747547e-02 1.298626472400464e-02
0.000000000000000e+00 0.000000000000000e+00 0.000000000000000e+00
0.000000000000000e+00 0.000000000000000e+00 0.000000000000000e+00
4.310490516086106e-02 3.950496682261132e-02 2.899066215185127e-02
-5.984888707589205e-03 3.113660405476375e-02 7.256018910499548e-03
0.000000000000000e+00 0.000000000000000e+00 0.000000000000000e+00
0.000000000000000e+00 0.000000000000000e+00 0.000000000000000e+00
0.000000000000000e+00 0.000000000000000e+00 0.000000000000000e+00
2.212784712936431e-02 9.649228217192059e-03 1.491823646797839e-02
-1.838048082694946e-03 3.739673485848082e-03 5.091348994569380e-04
3.324575457375405e-02 5.267554600779697e-02 2.269895085410223e-02
1.866352532650020e-02 3.394367480051991e-02 1.840903439275039e-02
-1.701802370308396e-02 4.502481985913263e-02 8.179675067161003e-03
1.723262706479041e-02 2.274217023352058e-01 3.904332449259373e-02
3.666909954115465e-02 2.035605316008541e-01 4.843105244242087e-02
-5.797645285441785e-02 1.881197918717322e-01 2.951269846811457e-02
-8.966544721036530e-02 2.088401682893070e-01 2.595582216692920e-02
2.134834602702208e-02 1.371219123637476e-01 2.488017128733338e-02
3.665340846634757e-02 1.238603477267116e-01 3.367490499526154e-02
-4.231205767105990e-02 1.121206712609575e-01 1.871245175524296e-02
-6.849823325056231e-02 1.243054031490764e-01 2.049621099224311e-02
2.876461948393144e-02 2.179060984594339e-01 4.391832667045776e-02
-1.129868984533714e-02 1.952005234014385e-01 3.827874929228026e-02
-7.498103863444350e-02 2.000171186565823e-01 2.747356897071579e-02
-3.553426183937700e-02 2.176389408911075e-01 3.291789242625938e-02
5.888175550641393e-02 1.648005688346838e-01 5.786681120480601e-02
-3.206660346961548e-02 1.499977872063735e-01 2.738981586936337e-02
5.567622898467146e-02 9.299329813807926e-02 4.387515837962018e-02
-1.639312349215555e-02 8.188171500202414e-02 1.723017370329842e-02
4.581022389178596e-02 1.856759233125556e-01 5.336253182276144e-02
1.408332701807243e-02 1.568985601168524e-01 4.270849949589534e-02
-4.668324183201551e-02 1.702667166564164e-01 2.811018620487768e-02
-1.702528071500592e-03 4.424226152964580e-01 6.392480329522546e-02
1.919713539230386e-02 3.927637195283611e-01 7.170798573334095e-02
-9.842484374655730e-02 3.699046513741437e-01 3.978802535379794e-02
-1.298293416780739e-01 4.150317816223860e-01 3.438049703435674e-02
9.766583410577581e-03 3.301542596056713e-01 5.271011751823719e-02
3.016719613629042e-02 2.943035254382523e-01 6.129896200346947e-02
-7.663073123182385e-02 2.754272157264062e-01 3.682941736323115e-02
-1.096908837170603e-01 3.071632502865559e-01 3.149655730714240e-02
9.072201787747175e-03 4.178804298840680e-01 6.830826267011983e-02
-3.997268955295991e-02 3.807432455639889e-01 5.534338244640945e-02
-1.115118751243606e-01 3.934771549671637e-01 3.859029584142919e-02
-6.671893094029546e-02 4.282657126219099e-01 4.862822319262464e-02
4.267822876747468e-02 3.398338891691715e-01 7.883244445221793e-02
-6.903595528814191e-02 3.195668621598673e-01 4.251425618493923e-02
5.352862764408346e-02 2.485701921588662e-01 6.971654952250998e-02
-5.023933142963224e-02 2.303540941351796e-01 3.567993681578507e-02
2.948997726874698e-02 3.668241270196141e-01 7.512506007217210e-02
-1.278445985287594e-02 3.295722551094135e-01 6.088067930637823e-02
-8.454721845573898e-02 3.456201709477733e-01 4.053019654784162e-02
-4.195861529029533e-02 6.759353967601825e-01 7.636663179314893e-02
-1.609954071934899e-02 5.994661581167365e-01 8.435715393936652e-02
-1.384069426301656e-01 5.748282629717726e-01 4.271106037679884e-02
-1.781376055900815e-01 6.568318006955119e-01 2.527647092944440e-02
-2.024757864511449e-02 5.602444970214477e-01 7.196621121246818e-02
2.876508734113464e-03 4.956473105863070e-01 7.967463768320054e-02
-1.198294046755764e-01 4.715814058678489e-01 4.038879911919101e-02
-1.517753644082874e-01 5.348586127617447e-01 3.046218269519651e-02
-2.798102568967806e-02 6.374159592611061e-01 8.113819669487358e-02
-7.715857980388477e-02 5.873581334943762e-01 6.363184160657760e-02
-1.585399092807598e-01 6.116652963072914e-01 3.524280750708373e-02
-1.092295796703880e-01 6.652391643634563e-01 5.217767793325837e-02
1.160412532370789e-02 5.352746509986774e-01 9.180996591677784e-02
-1.069625761721457e-01 5.130006725352574e-01 5.176987981091680e-02
2.802335490769525e-02 4.364594787451065e-01 8.612676216574093e-02
-8.787194326904481e-02 4.146445158331432e-01 4.765784253748817e-02
-2.949989061741848e-03 5.661014589863118e-01 8.793421200126539e-02
-4.770844512571042e-02 5.239576475617740e-01 7.170654225439727e-02
-1.215680206691122e-01 5.429987365530780e-01 4.810684316218089e-02
3.307678115438283e-01 1.933166449558001e-01 -4.427482672990657e-02
1.677865025360681e-01 1.256031904895412e-01 -2.009246487666683e-02
1.293002308468694e-01 1.024584421479398e-01 -2.989075065662236e-02
2.501083987821633e-01 1.520757262778676e-01 -5.133756987442333e-02
3.226180297181078e-01 3.101609339159209e-01 5.763337963376164e-03
8.495030827293608e-02 2.177645000050467e-01 2.981123637935479e-03
6.802536618958066e-02 1.755789864930452e-01 -1.116507946929807e-02
2.329463563711535e-01 2.544096286939463e-01 -8.642332931179959e-03
2.493556751883906e-01 1.687984158727203e-01 -3.256505577429329e-02
1.517403254562066e-01 1.116836997850138e-01 -2.693555323780901e-02
1.873799473674477e-01 1.339465248223418e-01 -4.102317756471525e-02
2.914472944933335e-01 1.710195771935984e-01 -4.809826889334277e-02
3.213288825044711e-01 2.545940978950335e-01 -2.005796117467592e-02
1.279974342299123e-01 1.699335006681602e-01 -9.491539577211204e-03
9.788087134264581e-02 1.391197885041609e-01 -1.775079422467606e-02
2.408843175528002e-01 2.030671904171668e-01 -2.989786612808513e-02
2.021393080720970e-01 2.769453490049074e-01 6.774696199084228e-03
7.765358398991501e-02 1.965573976609227e-01 -4.792298992113566e-03
1.425616009662602e-01 2.272622008067617e-01 -1.912966687003437e-03
2.692607275586570e-01 2.847850640926982e-01 -1.069720471663985e-03
1.950973618597467e-01 2.012631197352250e-01 -1.927090884648812e-02
2.206326819062759e-01 1.483067133694956e-01 -3.877616962193771e-02
1.727559704869296e-01 2.512657798037550e-01 -1.779884164927305e-03
2.808266953851047e-01 2.278375381355219e-01 -2.669554128130411e-02
1.144525063119464e-01 1.535702155514944e-01 -1.538565130168163e-02
2.236716666502054e-01 2.238404278808022e-01 -1.278417563926587e-02
1.651995102096092e-01 1.798564287254640e-01 -2.201923295019159e-02
4.971098923428895e-02 3.154129189198925e-02 -1.374676565452823e-03
4.451051274772998e-02 3.250699522503795e-02 -1.086606196724957e-02
-1.488738122947328e-02 5.934577237643376e-02 -8.472577238726546e-03
-1.086675798795285e-02 5.733152544628708e-02 -5.807480787880015e-03
9.937388780697438e-02 7.624044846651329e-02 -9.101271960521502e-03
4.966773342325461e-02 3.329492115619967e-02 -7.868480256445499e-03
8.124893114066835e-02 6.725310584452390e-02 -1.927575571259547e-02
1.694734471659385e-02 4.369795391664294e-02 -5.738829733115626e-03
1.654707589607768e-02 4.330784035825647e-02 -8.269931088427468e-03
1.573483559865055e-02 1.344253916586488e-01 -5.076709427541398e-03
-1.206279253692063e-02 5.983937394621131e-02 -6.729727231850254e-03
1.519268412417204e-02 1.161760347386929e-01 -8.381581565397788e-03
5.339423507220555e-02 9.741704316632885e-02 -1.104473949367611e-02
9.348819702171879e-02 7.118581018452699e-02 -1.626136833786355e-02
1.516316219717739e-02 1.267288058506514e-01 -5.633899623594093e-03
1.826007647464486e-02 4.474715901862246e-02 -7.032462298319111e-03
5.644738617906643e-02 1.039768440349919e-01 -7.141702437825526e-03
4.741523533870995e-02 9.053833735721525e-02 -1.309506852857697e-02
0.000000000000000e+00 0.000000000000000e+00 0.000000000000000e+00
0.000000000000000e+00 0.000000000000000e+00 0.000000000000000e+00
0.000000000000000e+00 0.000000000000000e+00 0.000000000000000e+00
0.000000000000000e+00 0.000000000000000e+00 0.000000000000000e+00
1.882268305132906e-02 6.630105393772303e-03 3.629694223584106e-03
0.000000000000000e+00 0.000000000000000e+00 0.000000000000000e+00