<?xml version="1.0" ?> 
<!-- 
# vtk DataFile Version 3.0
-->
<VTKFile type="UnstructuredGrid" version="0.1" compressor="vtkZLibDataCompressor" byte_order="LittleEndian">
  <UnstructuredGrid>
    <FieldData>
      <DataArray type="Float64" Name="TIME" NumberOfTuples="1" format="ascii">
3.000000000000000e+00 
      </DataArray>
    </FieldData>

    <Piece NumberOfPoints="60" NumberOfCells="0" >
      <Points>
        <DataArray type="Float64" NumberOfComponents="3" format="ascii">
1.000000000000000e+00 0.000000000000000e+00 -7.079632679490000e-02
7.071067811870000e-01 7.071067811870000e-01 7.146018366030000e-01
9.229551825145287e-01 3.823005540599320e-01 3.219027549043411e-01
7.071067811870000e-01 7.071067811870000e-01 7.146018366030000e-01
0.000000000000000e+00 1.000000000000000e+00 1.500000000000000e+00
3.823005540591956e-01 9.229551825132061e-01 1.107300918301373e+00
1.000000000000000e-01 3.000000000000000e-01 2.500000000000000e+00
1.150000000000000e+00 3.000000000000000e-01 3.050000000000000e+00
6.250000000000000e-01 3.000000000000000e-01 2.775000000000000e+00
1.150000000000000e+00 3.000000000000000e-01 3.050000000000000e+00
2.200000000000000e+00 3.000000000000000e-01 3.600000000000000e+00
1.675000000000000e+00 3.000000000000000e-01 3.325000000000000e+00
1.000000000000000e+00 0.000000000000000e+00 4.929203673210000e+00
7.071067811870000e-01 7.071067811870000e-01 5.714601836600000e+00
9.229551825141724e-01 3.823005540597845e-01 5.321902754905291e+00
7.071067811870000e-01 7.071067811870000e-01 5.714601836600000e+00
0.000000000000000e+00 1.000000000000000e+00 6.500000000000000e+00
3.823005540592516e-01 9.229551825133414e-01 6.107300918299874e+00
1.000000000000000e-01 3.000000000000000e-01 7.500000000000000e+00
1.150000000000000e+00 3.000000000000000e-01 8.050000000000001e+00
6.249999999999999e-01 3.000000000000000e-01 7.775000000000000e+00
1.150000000000000e+00 3.000000000000000e-01 8.050000000000001e+00
2.200000000000000e+00 3.000000000000000e-01 8.600000000000000e+00
1.675000000000000e+00 3.000000000000000e-01 8.324999999999999e+00
1.000000000000000e+00 0.000000000000000e+00 9.929203673210001e+00
7.071067811870000e-01 7.071067811870000e-01 1.071460183660000e+01
9.229551825141724e-01 3.823005540597844e-01 1.032190275490529e+01
7.071067811870000e-01 7.071067811870000e-01 1.071460183660000e+01
0.000000000000000e+00 1.000000000000000e+00 1.150000000000000e+01
3.823005540592517e-01 9.229551825133414e-01 1.110730091829987e+01
1.000000000000000e-01 3.000000000000000e-01 1.250000000000000e+01
1.150000000000000e+00 3.000000000000000e-01 1.305000000000000e+01
6.249999999999999e-01 3.000000000000000e-01 1.277500000000000e+01
1.150000000000000e+00 3.000000000000000e-01 1.305000000000000e+01
2.200000000000000e+00 3.000000000000000e-01 1.360000000000000e+01
1.675000000000000e+00 3.000000000000000e-01 1.332500000000000e+01
1.000000000000000e+00 0.000000000000000e+00 1.492920367320000e+01
7.071067811870000e-01 7.071067811870000e-01 1.571460183660000e+01
9.229551825146234e-01 3.823005540599712e-01 1.532190275490029e+01
7.071067811870000e-01 7.071067811870000e-01 1.571460183660000e+01
0.000000000000000e+00 1.000000000000000e+00 1.650000000000000e+01
3.823005540592517e-01 9.229551825133414e-01 1.610730091829987e+01
1.000000000000000e-01 3.000000000000000e-01 1.750000000000000e+01
1.150000000000000e+00 3.000000000000000e-01 1.805000000000000e+01
6.249999999999999e-01 3.000000000000000e-01 1.777500000000000e+01
1.150000000000000e+00 3.000000000000000e-01 1.805000000000000e+01
2.200000000000000e+00 3.000000000000000e-01 1.860000000000000e+01
1.675000000000000e+00 3.000000000000000e-01 1.832500000000000e+01
1.000000000000000e+00 0.000000000000000e+00 1.992920367320000e+01
7.071067811870000e-01 7.071067811870000e-01 2.071460183660000e+01
9.229551825146234e-01 3.823005540599712e-01 2.032190275490029e+01
7.071067811870000e-01 7.071067811870000e-01 2.071460183660000e+01
0.000000000000000e+00 1.000000000000000e+00 2.150000000000000e+01
3.823005540592516e-01 9.229551825133414e-01 2.110730091829987e+01
1.000000000000000e-01 3.000000000000000e-01 2.250000000000000e+01
1.150000000000000e+00 3.000000000000000e-01 2.305000000000000e+01
6.250000000000000e-01 3.000000000000000e-01 2.277500000000000e+01
1.150000000000000e+00 3.000000000000000e-01 2.305000000000000e+01
2.200000000000000e+00 3.000000000000000e-01 2.360000000000000e+01
1.675000000000000e+00 3.000000000000000e-01 2.332500000000000e+01
        </DataArray>
      </Points>

      <Cells>
        <DataArray type="Int32" Name="connectivity" format="ascii">
0 1 2 3 4 5 6 7 8 9 10 11 12 13 14 15 16 17 18 19 20 21 22 23 24 25 26 27 28 29 30 31 32 33 34 35 36 37 38 39 40 41 42 43 44 45 46 47 48 49 50 51 52 53 54 55 56 57 58 59 
        </DataArray>
        <DataArray type="Int32" Name="offsets" format="ascii">

        </DataArray>
        <DataArray type="UInt8" Name="types" format="ascii">

        </DataArray>
      </Cells>

  <PointData>
        <DataArray type="Float64" Name="displacement" NumberOfComponents="3" format="ascii">
3.282806679948147e-01 2.706090852537368e-01 4.074909348015436e-02
-1.531404282810178e-03 7.756542485352680e-02 -6.744620974829640e-03
9.219610956755442e-02 1.760987502427898e-01 4.548172538422213e-04
-1.531404282810178e-03 7.756542485352680e-02 -6.744620974829640e-03
0.000000000000000e+00 0.000000000000000e+00 0.000000000000000e+00
-2.088341110260850e-02 9.565873928112145e-03 -7.360320801050202e-03
0.000000000000000e+00 0.000000000000000e+00 0.000000000000000e+00
-7.790880589206783e-02 2.594081436903524e-01 1.850868867794908e-02
-2.312135486096101e-02 7.062940911449700e-02 7.057749296628391e-03
-7.790880589206783e-02 2.594081436903524e-01 1.850868867794908e-02
-2.658373876623337e-01 8.787509977899592e-01 -3.008255209387389e-02
-1.544628363651057e-01 5.281576515464148e-01 9.088703244739982e-03
4.119715746087937e-01 3.753854152970648e-01 5.038128555517396e-02
1.572029743769143e-02 1.181854818329207e-01 -5.838122888503605e-03
1.329215196519677e-01 2.411022044453307e-01 3.655058748469386e-03
1.572029743769143e-02 1.181854818329207e-01 -5.838122888503605e-03
0.000000000000000e+00 0.000000000000000e+00 0.000000000000000e+00
-1.065413466322945e-02 3.012795075131558e-02 -1.984828369011815e-03
0.000000000000000e+00 0.000000000000000e+00 0.000000000000000e+00
-1.503076804456975e-01 3.793980746713424e-01 4.730083356017900e-02
-4.813552512951880e-02 1.144916879583182e-01 1.803003025049765e-02
-1.503076804456975e-01 3.793980746713424e-01 4.730083356017900e-02
-4.680679182381793e-01 1.151102978634267e+00 -4.753651707897433e-03
-2.883966857028100e-01 7.257363932614913e-01 4.245919317946090e-02
4.152766020603837e-01 3.812278204324616e-01 5.011890794362550e-02
1.658544639857051e-02 1.209435819151018e-01 -6.110604602447722e-03
1.348211949633056e-01 2.452142812849447e-01 3.209747275292330e-03
1.658544639857051e-02 1.209435819151018e-01 -6.110604602447722e-03
0.000000000000000e+00 0.000000000000000e+00 0.000000000000000e+00
-1.054703279965075e-02 3.131395335115672e-02 -2.108509515844403e-03
0.000000000000000e+00 0.000000000000000e+00 0.000000000000000e+00
-1.536579672670246e-01 3.867975551013914e-01 4.713905388113915e-02
-4.945061574943166e-02 1.174042614749148e-01 1.809675689062118e-02
-1.536579672670246e-01 3.867975551013914e-01 4.713905388113915e-02
-4.779336487600596e-01 1.165973617239261e+00 -7.022395682717786e-03
-2.944271248821970e-01 7.367885650183306e-01 4.145661368167808e-02
2.384415422034292e-01 1.680522775158064e-01 3.212745459529742e-02
3.348207863742680e-03 6.989898106718218e-02 -4.718528312482206e-03
6.523178458786028e-02 1.202206556797584e-01 5.372540858143537e-03
3.348207863742680e-03 6.989898106718218e-02 -4.718528312482206e-03
0.000000000000000e+00 0.000000000000000e+00 0.000000000000000e+00
-1.644590898840015e-02 1.295208597509900e-02 -7.268266181476690e-03
0.000000000000000e+00 0.000000000000000e+00 0.000000000000000e+00
-3.722034723882706e-02 1.609867689574127e-01 1.396343284000068e-02
-1.271564295899952e-02 4.467240552457402e-02 5.338768720356768e-03
-3.722034723882706e-02 1.609867689574127e-01 1.396343284000068e-02
-1.204773426034702e-01 5.746960596276192e-01 -7.713575744261902e-03
-6.667695230939530e-02 3.266878033748449e-01 1.231593071047143e-02
4.091240090892299e-01 3.748749118879681e-01 4.918643492159802e-02
1.680703679435169e-02 1.208543314138996e-01 -5.684291251085938e-03
1.331566762159366e-01 2.433454717844160e-01 3.293221581433414e-03
1.680703679435169e-02 1.208543314138996e-01 -5.684291251085938e-03
0.000000000000000e+00 0.000000000000000e+00 0.000000000000000e+00
-1.087746159282182e-02 3.102258520691314e-02 -2.173439290217516e-03
0.000000000000000e+00 0.000000000000000e+00 0.000000000000000e+00
-1.528385714824154e-01 3.847467021992738e-01 4.714136226444765e-02
-4.936366330465691e-02 1.168551584340031e-01 1.805242921542671e-02
-1.528385714824154e-01 3.847467021992738e-01 4.714136226444765e-02
-4.746837806572710e-01 1.159835191194666e+00 -4.079611721042653e-03
-2.925305083438774e-01 7.328400277961094e-01 4.242103292198607e-02
        </DataArray>
        <DataArray type="Float64" Name="lambda" NumberOfComponents="3" format="ascii">
7.669251562851881e-02 2.857237790498484e-02 -2.978555234929097e-03
1.352668187402943e-02 3.288235909175509e-02 2.524784720038003e-03
2.081553219629103e-04 -1.438651804351134e-02 -6.832674227079755e-03
1.352668187402943e-02 3.288235909175509e-02 2.524784720038003e-03
6.449717881135950e-02 1.380926451902833e-01 2.637526570092271e-02
-3.692530833237269e-03 -1.071246273048248e-02 3.489355090157399e-04
-1.247561232404897e-02 -2.406226382388705e-02 -5.771527098562977e-03
-1.196435495232518e-03 -7.659608708959004e-03 -5.272739314896812e-04
2.205291832576207e-03 2.545910341750713e-03 1.142576727488122e-03
-1.196435495232518e-03 -7.659608708959004e-03 -5.272739314896812e-04
-1.728956843461753e-02 1.721838630180750e-02 -8.531868750951736e-03
6.705427027244731e-03 6.310624289685029e-03 3.788238119797887e-03
6.105450351087287e-02 7.255600982396539e-03 4.130085483111560e-03
6.776231151739155e-03 6.700502374135966e-03 -1.280897681302464e-04
2.759246681918879e-03 -5.155123712950802e-03 -6.034639243088525e-03
6.776231151739155e-03 6.700502374135966e-03 -1.280897681302464e-04
7.958740391634318e-03 1.024270106586777e-02 4.164400696019601e-03
-1.361639642432533e-03 -8.907652766989586e-04 2.213620622395038e-05
-2.048209592190153e-03 7.809032898339795e-04 1.033821076908759e-03
1.948218079939829e-03 4.952579091717526e-03 5.021983258354061e-03
2.556868677935195e-03 -3.825748147890585e-03 -6.643630884197141e-04
1.948218079939829e-03 4.952579091717526e-03 5.021983258354061e-03
-1.680015047375584e-02 3.168854341824631e-02 -1.357749884296223e-03
5.412476575267462e-03 3.294253289359070e-03 2.086318214344341e-03
6.019122941045022e-02 6.886271404324203e-03 3.992736089003890e-03
6.043892262148960e-03 6.354432228227334e-03 -1.579040537715096e-04
2.912966492634208e-03 -4.931869074832785e-03 -5.836310824374014e-03
6.043892262148960e-03 6.354432228227334e-03 -1.579040537715096e-04
6.878936264247798e-03 8.667201261393573e-03 3.802855173709226e-03
-8.525412725901135e-04 -8.790341925987865e-04 -1.427105115611675e-04
-1.650966662664383e-03 7.941938688256694e-05 1.298745935896353e-03
1.579962500300900e-03 4.459506324159607e-03 4.842990347730038e-03
2.787905189515902e-03 -3.607207994037592e-03 -5.633654853663344e-04
1.579962500300900e-03 4.459506324159607e-03 4.842990347730038e-03
-1.690816828070006e-02 3.043915171145559e-02 -1.411948421422392e-03
5.404956722717469e-03 3.498362211694580e-03 2.076730928361622e-03
9.078323935867894e-02 2.049941684860246e-02 5.506520832258172e-03
2.552029024251955e-02 2.401483721319880e-02 4.385925998056568e-03
-7.675746775096370e-03 -9.455424112939663e-03 -5.622817417626118e-03
2.552029024251955e-02 2.401483721319880e-02 4.385925998056568e-03
8.540609420836318e-02 1.450250279359102e-01 2.705617121431697e-02
-6.451084392253019e-03 -8.162822499006024e-03 -3.181450355166464e-03
1.161072375480763e-02 -1.342469859859004e-02 -4.523296085881412e-03
1.037036680756441e-03 -9.874831128364560e-04 -1.929579192271930e-03
-4.543658722331142e-04 2.723383272706033e-04 7.697006286677711e-04
1.037036680756441e-03 -9.874831128364560e-04 -1.929579192271930e-03
-1.010752208477391e-02 3.616136730796926e-02 -9.270621125447961e-03
4.022147518022119e-03 1.807850974001066e-03 2.968059185807212e-03
6.233355323371230e-02 6.168622612587034e-03 1.959186190619187e-03
6.540167865699354e-03 6.238728836901417e-03 -8.510515418982214e-04
2.423550038405744e-03 -4.833364058573428e-03 -5.376140162338589e-03
6.540167865699354e-03 6.238728836901417e-03 -8.510515418982214e-04
6.906123901945580e-03 8.879123167586328e-03 3.606423044752663e-03
-8.239668248395654e-04 -7.781030912987497e-04 6.998695313254375e-05
-2.343462903908653e-03 4.881184415534331e-05 -1.809414650815428e-04
1.577689934608354e-03 5.064221653579937e-03 4.587207047236257e-03
2.977232446141682e-03 -3.784765225588671e-03 -3.435625973179316e-04
1.577689934608354e-03 5.064221653579937e-03 4.587207047236257e-03
-1.652228551416660e-02 3.245906627492715e-02 -1.767332469764247e-03
5.377923230147575e-03 3.179502007692971e-03 2.157350530704651e-03
        </DataArray>
        <DataArray type="Float64" Name="uid_0_pair_beam_id" format="ascii">
2.670000000000000e+02
2.670000000000000e+02
2.670000000000000e+02
2.680000000000000e+02
2.680000000000000e+02
2.680000000000000e+02
2.690000000000000e+02
2.690000000000000e+02
2.690000000000000e+02
2.700000000000000e+02
2.700000000000000e+02
2.700000000000000e+02
2.710000000000000e+02
2.710000000000000e+02
2.710000000000000e+02
2.720000000000000e+02
2.720000000000000e+02
2.720000000000000e+02
2.730000000000000e+02
2.730000000000000e+02
2.730000000000000e+02
2.740000000000000e+02
2.740000000000000e+02
2.740000000000000e+02
2.750000000000000e+02
2.750000000000000e+02
2.750000000000000e+02
2.760000000000000e+02
2.760000000000000e+02
2.760000000000000e+02
2.770000000000000e+02
2.770000000000000e+02
2.770000000000000e+02
2.780000000000000e+02
2.780000000000000e+02
2.780000000000000e+02
2.790000000000000e+02
2.790000000000000e+02
2.790000000000000e+02
2.800000000000000e+02
2.800000000000000e+02
2.800000000000000e+02
2.810000000000000e+02
2.810000000000000e+02
2.810000000000000e+02
2.820000000000000e+02
2.820000000000000e+02
2.820000000000000e+02
2.830000000000000e+02
2.830000000000000e+02
2.830000000000000e+02
2.840000000000000e+02
2.840000000000000e+02
2.840000000000000e+02
2.850000000000000e+02
2.850000000000000e+02
2.850000000000000e+02
2.860000000000000e+02
2.860000000000000e+02
2.860000000000000e+02
        </DataArray>
        <DataArray type="Float64" Name="uid_1_pair_solid_id" format="ascii">
0.000000000000000e+00
0.000000000000000e+00
0.000000000000000e+00
0.000000000000000e+00
0.000000000000000e+00
0.000000000000000e+00
9.000000000000000e+00
9.000000000000000e+00
9.000000000000000e+00
9.000000000000000e+00
9.000000000000000e+00
9.000000000000000e+00
1.700000000000000e+01
1.700000000000000e+01
1.700000000000000e+01
1.700000000000000e+01
1.700000000000000e+01
1.700000000000000e+01
2.600000000000000e+01
2.600000000000000e+01
2.600000000000000e+01
2.600000000000000e+01
2.600000000000000e+01
2.600000000000000e+01
3.400000000000000e+01
3.400000000000000e+01
3.400000000000000e+01
3.400000000000000e+01
3.400000000000000e+01
3.400000000000000e+01
4.300000000000000e+01
4.300000000000000e+01
4.300000000000000e+01
4.300000000000000e+01
4.300000000000000e+01
4.300000000000000e+01
5.100000000000000e+01
5.100000000000000e+01
5.100000000000000e+01
5.100000000000000e+01
5.100000000000000e+01
5.100000000000000e+01
9.900000000000000e+01
9.900000000000000e+01
9.900000000000000e+01
9.900000000000000e+01
9.900000000000000e+01
9.900000000000000e+01
1.590000000000000e+02
1.590000000000000e+02
1.590000000000000e+02
1.590000000000000e+02
1.590000000000000e+02
1.590000000000000e+02
2.070000000000000e+02
2.070000000000000e+02
2.070000000000000e+02
2.070000000000000e+02
2.070000000000000e+02
2.070000000000000e+02
        </DataArray>
      </PointData>

    </Piece>
  </UnstructuredGrid>
</VTKFile>
