<?xml version="1.0" ?> 
<!-- 
# vtk DataFile Version 3.0
-->
<VTKFile type="UnstructuredGrid" version="0.1" compressor="vtkZLibDataCompressor" byte_order="LittleEndian">
  <UnstructuredGrid>
    <FieldData>
      <DataArray type="Float64" Name="TIME" NumberOfTuples="1" format="ascii">
3.000000000000000e+00 
      </DataArray>
      <DataArray type="Float64" Name="sum_coupling_force_beam" NumberOfTuples="1" NumberOfComponents="3" format="ascii">
1.042037833833852e-01 5.496163072408913e-02 4.057966912868452e-03 
      </DataArray>
      <DataArray type="Float64" Name="sum_coupling_force_solid" NumberOfTuples="1" NumberOfComponents="3" format="ascii">
-1.042037833833852e-01 -5.496163072408914e-02 -4.057966912868454e-03 
      </DataArray>
      <DataArray type="Float64" Name="sum_coupling_moment_beam" NumberOfTuples="1" NumberOfComponents="3" format="ascii">
-5.448105137065092e-02 1.320920786668562e-01 1.277092911903580e-03 
      </DataArray>
      <DataArray type="Float64" Name="sum_coupling_moment_solid" NumberOfTuples="1" NumberOfComponents="3" format="ascii">
5.706309408590086e-01 -1.154244605172514e+00 4.791483667558677e-02 
      </DataArray>
    </FieldData>

    <Piece NumberOfPoints="927" NumberOfCells="0" >
      <Points>
        <DataArray type="Float64" NumberOfComponents="3" format="ascii">
7.000000000000000e-01 0.000000000000000e+00 0.000000000000000e+00
6.062177826489999e-01 3.500000000000000e-01 0.000000000000000e+00
6.062177826489999e-01 3.500000000000000e-01 5.000000000000000e-01
7.000000000000000e-01 0.000000000000000e+00 5.000000000000000e-01
1.000000000000000e+00 0.000000000000000e+00 0.000000000000000e+00
8.660254037839999e-01 5.000000000000000e-01 0.000000000000000e+00
8.660254037839999e-01 5.000000000000000e-01 5.000000000000000e-01
1.000000000000000e+00 0.000000000000000e+00 5.000000000000000e-01
3.500000000000000e-01 6.062177826489999e-01 0.000000000000000e+00
3.500000000000000e-01 6.062177826489999e-01 5.000000000000000e-01
5.000000000000000e-01 8.660254037839999e-01 0.000000000000000e+00
5.000000000000000e-01 8.660254037839999e-01 5.000000000000000e-01
0.000000000000000e+00 7.000000000000000e-01 0.000000000000000e+00
0.000000000000000e+00 7.000000000000000e-01 5.000000000000000e-01
0.000000000000000e+00 1.000000000000000e+00 0.000000000000000e+00
0.000000000000000e+00 1.000000000000000e+00 5.000000000000000e-01
6.062177826489999e-01 3.500000000000000e-01 1.000000000000000e+00
7.000000000000000e-01 0.000000000000000e+00 1.000000000000000e+00
8.660254037839999e-01 5.000000000000000e-01 1.000000000000000e+00
1.000000000000000e+00 0.000000000000000e+00 1.000000000000000e+00
3.500000000000000e-01 6.062177826489999e-01 1.000000000000000e+00
5.000000000000000e-01 8.660254037839999e-01 1.000000000000000e+00
0.000000000000000e+00 7.000000000000000e-01 1.000000000000000e+00
0.000000000000000e+00 1.000000000000000e+00 1.000000000000000e+00
6.062177826489999e-01 3.500000000000000e-01 1.500000000000000e+00
7.000000000000000e-01 0.000000000000000e+00 1.500000000000000e+00
8.660254037839999e-01 5.000000000000000e-01 1.500000000000000e+00
1.000000000000000e+00 0.000000000000000e+00 1.500000000000000e+00
3.500000000000000e-01 6.062177826489999e-01 1.500000000000000e+00
5.000000000000000e-01 8.660254037839999e-01 1.500000000000000e+00
0.000000000000000e+00 7.000000000000000e-01 1.500000000000000e+00
0.000000000000000e+00 1.000000000000000e+00 1.500000000000000e+00
0.000000000000000e+00 0.000000000000000e+00 3.500000000000000e+00
0.000000000000000e+00 0.000000000000000e+00 3.000000000000000e+00
0.000000000000000e+00 3.000000000000000e-01 3.000000000000000e+00
0.000000000000000e+00 3.000000000000000e-01 3.500000000000000e+00
5.000000000000000e-01 0.000000000000000e+00 3.500000000000000e+00
5.000000000000000e-01 0.000000000000000e+00 3.000000000000000e+00
5.000000000000000e-01 3.000000000000000e-01 3.000000000000000e+00
5.000000000000000e-01 3.000000000000000e-01 3.500000000000000e+00
0.000000000000000e+00 0.000000000000000e+00 2.500000000000000e+00
0.000000000000000e+00 3.000000000000000e-01 2.500000000000000e+00
5.000000000000000e-01 0.000000000000000e+00 2.500000000000000e+00
5.000000000000000e-01 3.000000000000000e-01 2.500000000000000e+00
1.000000000000000e+00 0.000000000000000e+00 3.500000000000000e+00
1.000000000000000e+00 0.000000000000000e+00 3.000000000000000e+00
1.000000000000000e+00 3.000000000000000e-01 3.000000000000000e+00
1.000000000000000e+00 3.000000000000000e-01 3.500000000000000e+00
1.000000000000000e+00 0.000000000000000e+00 2.500000000000000e+00
1.000000000000000e+00 3.000000000000000e-01 2.500000000000000e+00
1.500000000000000e+00 0.000000000000000e+00 3.500000000000000e+00
1.500000000000000e+00 0.000000000000000e+00 3.000000000000000e+00
1.500000000000000e+00 3.000000000000000e-01 3.000000000000000e+00
1.500000000000000e+00 3.000000000000000e-01 3.500000000000000e+00
1.500000000000000e+00 0.000000000000000e+00 2.500000000000000e+00
1.500000000000000e+00 3.000000000000000e-01 2.500000000000000e+00
2.000000000000000e+00 0.000000000000000e+00 3.500000000000000e+00
2.000000000000000e+00 0.000000000000000e+00 3.000000000000000e+00
2.000000000000000e+00 3.000000000000000e-01 3.000000000000000e+00
2.000000000000000e+00 3.000000000000000e-01 3.500000000000000e+00
2.000000000000000e+00 0.000000000000000e+00 2.500000000000000e+00
2.000000000000000e+00 3.000000000000000e-01 2.500000000000000e+00
7.000000000000000e-01 0.000000000000000e+00 5.000000000000000e+00
6.062177826489999e-01 3.500000000000000e-01 5.000000000000000e+00
6.062177826489999e-01 3.500000000000000e-01 5.500000000000000e+00
7.000000000000000e-01 0.000000000000000e+00 5.500000000000000e+00
1.000000000000000e+00 0.000000000000000e+00 5.000000000000000e+00
8.660254037839999e-01 5.000000000000000e-01 5.000000000000000e+00
8.660254037839999e-01 5.000000000000000e-01 5.500000000000000e+00
1.000000000000000e+00 0.000000000000000e+00 5.500000000000000e+00
6.761480784020000e-01 1.811733315720000e-01 5.000000000000000e+00
6.062177826489999e-01 3.500000000000000e-01 5.250000000000000e+00
6.761480784020000e-01 1.811733315720000e-01 5.500000000000000e+00
7.000000000000000e-01 0.000000000000000e+00 5.250000000000000e+00
8.500000000000000e-01 0.000000000000000e+00 5.000000000000000e+00
7.361215932170000e-01 4.250000000000000e-01 5.000000000000000e+00
7.361215932170000e-01 4.250000000000000e-01 5.500000000000000e+00
8.500000000000000e-01 0.000000000000000e+00 5.500000000000000e+00
9.659258262890000e-01 2.588190451030000e-01 5.000000000000000e+00
8.660254037839999e-01 5.000000000000000e-01 5.250000000000000e+00
9.659258262890000e-01 2.588190451030000e-01 5.500000000000000e+00
1.000000000000000e+00 0.000000000000000e+00 5.250000000000000e+00
3.500000000000000e-01 6.062177826489999e-01 5.000000000000000e+00
3.500000000000000e-01 6.062177826489999e-01 5.500000000000000e+00
5.000000000000000e-01 8.660254037839999e-01 5.000000000000000e+00
5.000000000000000e-01 8.660254037839999e-01 5.500000000000000e+00
4.949747468310000e-01 4.949747468310000e-01 5.000000000000000e+00
3.500000000000000e-01 6.062177826489999e-01 5.250000000000000e+00
4.949747468310000e-01 4.949747468310000e-01 5.500000000000000e+00
4.250000000000000e-01 7.361215932170000e-01 5.000000000000000e+00
4.250000000000000e-01 7.361215932170000e-01 5.500000000000000e+00
7.071067811870000e-01 7.071067811870000e-01 5.000000000000000e+00
5.000000000000000e-01 8.660254037839999e-01 5.250000000000000e+00
7.071067811870000e-01 7.071067811870000e-01 5.500000000000000e+00
0.000000000000000e+00 7.000000000000000e-01 5.000000000000000e+00
0.000000000000000e+00 7.000000000000000e-01 5.500000000000000e+00
0.000000000000000e+00 1.000000000000000e+00 5.000000000000000e+00
0.000000000000000e+00 1.000000000000000e+00 5.500000000000000e+00
1.811733315720000e-01 6.761480784020000e-01 5.000000000000000e+00
0.000000000000000e+00 7.000000000000000e-01 5.250000000000000e+00
1.811733315720000e-01 6.761480784020000e-01 5.500000000000000e+00
0.000000000000000e+00 8.500000000000000e-01 5.000000000000000e+00
0.000000000000000e+00 8.500000000000000e-01 5.500000000000000e+00
2.588190451030000e-01 9.659258262890000e-01 5.000000000000000e+00
0.000000000000000e+00 1.000000000000000e+00 5.250000000000000e+00
2.588190451030000e-01 9.659258262890000e-01 5.500000000000000e+00
6.062177826489999e-01 3.500000000000000e-01 6.000000000000000e+00
7.000000000000000e-01 0.000000000000000e+00 6.000000000000000e+00
8.660254037839999e-01 5.000000000000000e-01 6.000000000000000e+00
1.000000000000000e+00 0.000000000000000e+00 6.000000000000000e+00
6.062177826489999e-01 3.500000000000000e-01 5.750000000000000e+00
6.761480784020000e-01 1.811733315720000e-01 6.000000000000000e+00
7.000000000000000e-01 0.000000000000000e+00 5.750000000000000e+00
7.361215932170000e-01 4.250000000000000e-01 6.000000000000000e+00
8.500000000000000e-01 0.000000000000000e+00 6.000000000000000e+00
8.660254037839999e-01 5.000000000000000e-01 5.750000000000000e+00
9.659258262890000e-01 2.588190451030000e-01 6.000000000000000e+00
1.000000000000000e+00 0.000000000000000e+00 5.750000000000000e+00
3.500000000000000e-01 6.062177826489999e-01 6.000000000000000e+00
5.000000000000000e-01 8.660254037839999e-01 6.000000000000000e+00
3.500000000000000e-01 6.062177826489999e-01 5.750000000000000e+00
4.949747468310000e-01 4.949747468310000e-01 6.000000000000000e+00
4.250000000000000e-01 7.361215932170000e-01 6.000000000000000e+00
5.000000000000000e-01 8.660254037839999e-01 5.750000000000000e+00
7.071067811870000e-01 7.071067811870000e-01 6.000000000000000e+00
0.000000000000000e+00 7.000000000000000e-01 6.000000000000000e+00
0.000000000000000e+00 1.000000000000000e+00 6.000000000000000e+00
0.000000000000000e+00 7.000000000000000e-01 5.750000000000000e+00
1.811733315720000e-01 6.761480784020000e-01 6.000000000000000e+00
0.000000000000000e+00 8.500000000000000e-01 6.000000000000000e+00
0.000000000000000e+00 1.000000000000000e+00 5.750000000000000e+00
[...]
  <PointData>
        <DataArray type="Float64" Name="displacement" NumberOfComponents="3" format="ascii">
3.265038806799464e-01 1.710924628339793e-01 -2.420616520756014e-02
1.612715991020588e-01 9.658259795826679e-02 -1.397566054928942e-02
1.145259093717563e-01 8.928454783870625e-02 -1.988254047321121e-02
2.283601448147444e-01 1.304362188968477e-01 -3.614740983235044e-02
3.228074531163757e-01 2.907128237918221e-01 2.660310341266100e-02
8.209963553976503e-02 1.703482907522083e-01 -6.962251203830436e-04
5.770953489253708e-02 1.542904717612251e-01 -5.459374785362140e-03
2.040362637833799e-01 2.233728733720126e-01 1.374770857357220e-02
4.698747424571820e-02 2.528439972637662e-02 6.531457518549133e-04
3.890126348581390e-02 3.173538634174439e-02 -1.237657158724504e-02
-1.227601424040883e-02 3.806856337548863e-02 -1.148582964520907e-02
-9.783069536980781e-03 4.936749381533335e-02 -7.882118468734389e-03
0.000000000000000e+00 0.000000000000000e+00 0.000000000000000e+00
0.000000000000000e+00 0.000000000000000e+00 0.000000000000000e+00
0.000000000000000e+00 0.000000000000000e+00 0.000000000000000e+00
0.000000000000000e+00 0.000000000000000e+00 0.000000000000000e+00
8.244649130171118e-02 8.266154775281673e-02 -1.742376000306433e-02
1.539958289238246e-01 1.137201490821428e-01 -2.822843112559288e-02
4.378037767575796e-02 1.382930429559772e-01 -1.241816365679078e-03
1.468564307594266e-01 1.749639211601216e-01 9.188839121044271e-04
2.616759382764441e-02 2.720315800072122e-02 -6.365675395814269e-03
-1.787645597974871e-02 3.717131209764675e-02 -9.876220351697412e-03
0.000000000000000e+00 0.000000000000000e+00 0.000000000000000e+00
0.000000000000000e+00 0.000000000000000e+00 0.000000000000000e+00
5.727700231149863e-02 7.679127655616289e-02 -1.463902688617733e-02
1.118812865725660e-01 9.123649641493896e-02 -2.857265255353730e-02
3.190668055286504e-02 1.077009218069841e-01 -8.384461755267776e-04
1.067760784954300e-01 1.411778136071899e-01 -4.574394662400983e-03
2.857078824549732e-02 4.817433736699648e-02 -3.151303432212921e-03
-8.823938344546242e-04 7.148363320756264e-02 -1.073023622290931e-02
0.000000000000000e+00 0.000000000000000e+00 0.000000000000000e+00
0.000000000000000e+00 0.000000000000000e+00 0.000000000000000e+00
0.000000000000000e+00 0.000000000000000e+00 0.000000000000000e+00
0.000000000000000e+00 0.000000000000000e+00 0.000000000000000e+00
0.000000000000000e+00 0.000000000000000e+00 0.000000000000000e+00
0.000000000000000e+00 0.000000000000000e+00 0.000000000000000e+00
2.574911648562676e-02 8.800462553927629e-02 1.672920613741856e-02
3.064814907599223e-02 7.049944746041735e-02 2.661728588286223e-02
-2.915463289255222e-02 6.377311270805884e-02 4.014489638241241e-03
-5.517901373894517e-02 7.885528858648293e-02 1.291894373681891e-02
0.000000000000000e+00 0.000000000000000e+00 0.000000000000000e+00
0.000000000000000e+00 0.000000000000000e+00 0.000000000000000e+00
4.267214529296186e-02 2.465431480189813e-02 4.060929305129383e-02
-2.600966505232311e-03 9.169453958490132e-03 3.406764764805775e-04
1.300690702469919e-02 2.817914186444816e-01 5.101274478346163e-02
3.609923478440522e-02 2.174013545417074e-01 5.926902628227679e-02
-6.064099399172056e-02 1.956896709781156e-01 1.740615924373686e-02
-1.058430174078596e-01 2.531199628751722e-01 1.207495723581795e-02
6.316888968091028e-02 1.481818425135155e-01 6.944114810819303e-02
-1.992441473662604e-02 1.325082584985137e-01 2.287267036668490e-02
-2.472199073559413e-02 5.203978672676185e-01 7.188934370306319e-02
1.293801329614568e-02 4.161798246189490e-01 8.566952292584898e-02
-1.025288386115403e-01 3.840702160078901e-01 2.141564838294860e-02
-1.529125496420588e-01 4.803016146485247e-01 1.097449319696702e-02
5.116327388121582e-02 3.136235667558721e-01 9.858424452752886e-02
-5.095280504953484e-02 2.868586836080942e-01 3.083140460623986e-02
-8.150012083661091e-02 7.687033210784233e-01 7.334016979216666e-02
-2.862170418892325e-02 6.301652884730115e-01 9.683060963964042e-02
-1.509349730753033e-01 5.894899056340250e-01 1.272155452944212e-02
-2.153200226872516e-01 7.320785820027176e-01 -1.043940600384725e-02
2.005675995059343e-02 4.973781074071619e-01 1.138087125096590e-01
-8.641489209560209e-02 4.665151357778552e-01 3.326682011359890e-02
3.826836163110078e-01 2.359152459274955e-01 -4.235550912106782e-02
2.036055256348097e-01 1.462810772659540e-01 -2.032564627152631e-02
1.458826004617854e-01 1.155233429536020e-01 -2.943610024213703e-02
2.731160487631834e-01 1.749450552331861e-01 -4.874153981680131e-02
3.713154982403608e-01 3.525830074782003e-01 3.661262407574572e-02
1.022753003579493e-01 2.380871294097054e-01 9.138903238696774e-03
7.289179993331764e-02 1.915750086323127e-01 -5.969147086155380e-03
2.490924887330026e-01 2.808197698974820e-01 7.395971905921361e-03
2.931989165470563e-01 2.026576218546034e-01 -3.033330068439687e-02
1.771436268552445e-01 1.284086722858424e-01 -2.770127811954910e-02
2.075978259534443e-01 1.521267860788000e-01 -4.050291655623106e-02
3.308332500179358e-01 2.007258906964525e-01 -4.712872329645258e-02
3.700367370204295e-01 2.990749261002349e-01 -3.629151679018670e-03
1.531578290333022e-01 1.913150862905757e-01 -4.963624913844125e-03
1.084691876370850e-01 1.534539989254633e-01 -1.537562932830664e-02
2.618506310702373e-01 2.271009342699614e-01 -2.176670878826854e-02
2.418624802922930e-01 3.111292464588867e-01 2.516746232440464e-02
9.070853857814212e-02 2.148314186330472e-01 -3.165510487432990e-04
1.553343478429422e-01 2.487494287599471e-01 7.766627114768237e-03
3.003746826458053e-01 3.166948141200269e-01 1.757420331858557e-02
6.141677617868455e-02 3.451301868721059e-02 1.713951534194147e-04
5.165866081527751e-02 3.681427493729145e-02 -1.156774056014136e-02
-9.340079478579495e-03 6.120426487097180e-02 -9.297724671273199e-03
-8.880646347623545e-03 6.107825187075326e-02 -6.433699018876614e-03
1.213800751776232e-01 8.507768590798551e-02 -8.658186173602676e-03
6.029535508930586e-02 3.783652563407500e-02 -8.744255306542659e-03
9.317041203970779e-02 7.520332668204657e-02 -2.056628116728140e-02
2.479496100517086e-02 4.449193891430599e-02 -5.084434758043584e-03
2.075677267313710e-02 4.570691262386858e-02 -8.729234698903222e-03
2.205085463921062e-02 1.442336743412234e-01 -3.455071696428611e-03
-8.635598322235217e-03 6.361382009969034e-02 -6.220512026185220e-03
1.827169076476429e-02 1.268516031937676e-01 -7.035809490440928e-03
0.000000000000000e+00 0.000000000000000e+00 0.000000000000000e+00
0.000000000000000e+00 0.000000000000000e+00 0.000000000000000e+00
0.000000000000000e+00 0.000000000000000e+00 0.000000000000000e+00
0.000000000000000e+00 0.000000000000000e+00 0.000000000000000e+00
2.317334351892636e-02 6.922196858379841e-03 4.457213266475878e-03
0.000000000000000e+00 0.000000000000000e+00 0.000000000000000e+00
2.159985046986496e-02 1.095520125315447e-02 -5.914460175228849e-03
0.000000000000000e+00 0.000000000000000e+00 0.000000000000000e+00
0.000000000000000e+00 0.000000000000000e+00 0.000000000000000e+00
-1.055510924445950e-02 1.074849660742123e-02 -6.939208273499213e-03
0.000000000000000e+00 0.000000000000000e+00 0.000000000000000e+00
-1.057787645923556e-02 1.500659070060494e-02 -4.754513408340718e-03
1.014586112163204e-01 8.913322445104037e-02 -2.828931952619494e-02
1.966390883953927e-01 1.276690243928535e-01 -4.995233438533351e-02
5.298486311105331e-02 1.499538671437685e-01 -3.497332329851525e-04
1.847573417335970e-01 2.092524372109672e-01 -1.591566533522244e-02
1.213072385902458e-01 1.036090646582800e-01 -2.865616810257674e-02
1.468821572473613e-01 1.135336634293566e-01 -3.774060621986600e-02
2.282746185700226e-01 1.513098844018381e-01 -4.965523479366973e-02
7.686894514660585e-02 1.192821804370193e-01 -1.476256333636252e-02
1.901883499170926e-01 1.680381747036259e-01 -3.307296825751628e-02
6.355208333844088e-02 1.737485250059615e-01 -2.266328674244646e-03
1.128074999497689e-01 1.881742886747027e-01 -2.685278630075018e-03
2.116008573612652e-01 2.418541839667355e-01 -5.519664155303136e-03
3.646304358036129e-02 3.119274534782329e-02 -1.385382897171461e-02
-1.055704653624625e-02 5.146714799052832e-02 -3.930325546350484e-03
4.389228282977159e-02 3.564000456633014e-02 -1.284697682382408e-02
6.484061373913981e-02 6.054426366491319e-02 -2.071712208967780e-02
1.281412632820822e-02 3.948308758368920e-02 -8.691713954232100e-03
-8.347008383859414e-03 5.880677487285341e-02 -6.176814293947070e-03
1.164671878343546e-02 1.016519916721952e-01 -2.288588164245614e-03
0.000000000000000e+00 0.000000000000000e+00 0.000000000000000e+00
0.000000000000000e+00 0.000000000000000e+00 0.000000000000000e+00
0.000000000000000e+00 0.000000000000000e+00 0.000000000000000e+00
1.555220301586355e-02 9.954412172482453e-03 -6.812259916763160e-03
0.000000000000000e+00 0.000000000000000e+00 0.000000000000000e+00
0.000000000000000e+00 0.000000000000000e+00 0.000000000000000e+00
-1.130343318267609e-02 1.434247259541573e-02 -2.798301531216039e-03
7.239980273337827e-02 5.227018193136650e-02 -3.038601123657925e-02
1.529099767389843e-01 8.244360272813742e-02 -5.110780316411847e-02
3.331941548586324e-02 1.055203539981484e-01 -1.723991483441873e-03
1.433180955383683e-01 1.536220405209606e-01 -2.364647359029431e-02
8.583302593525276e-02 7.209817952944263e-02 -2.873186060926854e-02
1.100851352366758e-01 7.143184169022669e-02 -3.921790492530584e-02
1.726137647663553e-01 1.048774429984779e-01 -5.006572516526660e-02
5.252978097332101e-02 7.871042950437034e-02 -1.570551016810890e-02
1.482037743968362e-01 1.179589757340126e-01 -3.749723902858278e-02
4.428064602434292e-02 1.267375431876782e-01 -1.227334050353573e-03
8.280121279246086e-02 1.364058866991810e-01 -8.820173851545241e-03
1.625487943967903e-01 1.792719774031481e-01 -2.121268824151312e-02
2.302238983663922e-02 1.191933032379879e-02 -1.677716066717755e-02
-9.099958991215537e-03 2.797165433031257e-02 6.788531404926618e-04
2.824014525516148e-02 2.442757981829853e-02 -1.439327454514329e-02
4.372178219383394e-02 3.095329380818195e-02 -2.423210126426232e-02
6.500628066123352e-03 1.861501986823361e-02 -7.864631827409530e-03
-9.365555108145813e-03 4.214406554504307e-02 -1.523667925293372e-03
2.110333271377052e-03 6.539791695978237e-02 5.129008665703717e-04
0.000000000000000e+00 0.000000000000000e+00 0.000000000000000e+00
0.000000000000000e+00 0.000000000000000e+00 0.000000000000000e+00
0.000000000000000e+00 0.000000000000000e+00 0.000000000000000e+00
9.541189029853060e-03 2.507501368712137e-03 -9.801415371954237e-03
0.000000000000000e+00 0.000000000000000e+00 0.000000000000000e+00
0.000000000000000e+00 0.000000000000000e+00 0.000000000000000e+00
-5.368165457705442e-03 8.004730244684715e-03 2.413241795206409e-03
0.000000000000000e+00 0.000000000000000e+00 0.000000000000000e+00
0.000000000000000e+00 0.000000000000000e+00 0.000000000000000e+00
0.000000000000000e+00 0.000000000000000e+00 0.000000000000000e+00
0.000000000000000e+00 0.000000000000000e+00 0.000000000000000e+00
2.547080298063540e-02 1.135700075194893e-01 1.997186086459960e-02
4.094268737719265e-02 1.070556677049583e-01 3.163833467795987e-02
-5.258276658081081e-02 8.902457448369896e-02 1.393232887514303e-02
-8.199982029094281e-02 9.226007093823128e-02 2.293438230850817e-02
0.000000000000000e+00 0.000000000000000e+00 0.000000000000000e+00
0.000000000000000e+00 0.000000000000000e+00 0.000000000000000e+00
0.000000000000000e+00 0.000000000000000e+00 0.000000000000000e+00
0.000000000000000e+00 0.000000000000000e+00 0.000000000000000e+00
1.922253462231161e-02 2.922596735271960e-02 2.653929935801213e-03
2.557987545111987e-02 3.493529707651816e-02 1.231629663787274e-02
-2.582932005293732e-02 2.878672198150653e-02 3.606219920624558e-03
-3.999636250205373e-02 2.479009922247018e-02 1.607858032499403e-02
3.490646322235778e-02 1.160778338608292e-01 2.570794347102944e-02
-5.485870744040445e-03 9.523459322904049e-02 2.365138925685603e-02
-6.881393697526865e-02 9.601477805178134e-02 1.695424928262493e-02
-2.784344763560512e-02 9.989400404555449e-02 2.130741073995717e-02
0.000000000000000e+00 0.000000000000000e+00 0.000000000000000e+00
0.000000000000000e+00 0.000000000000000e+00 0.000000000000000e+00
6.623847242028437e-02 7.148903000618655e-02 4.778134993662718e-02
-1.229207770731403e-02 5.157775548573479e-02 1.035388182882618e-02
0.000000000000000e+00 0.000000000000000e+00 0.000000000000000e+00
0.000000000000000e+00 0.000000000000000e+00 0.000000000000000e+00
0.000000000000000e+00 0.000000000000000e+00 0.000000000000000e+00
3.513450156680226e-02 1.799856368848232e-02 2.469211572033299e-02
-2.944578665195734e-03 5.824661200150055e-03 6.376129141779725e-04
4.850085678778177e-02 9.247999845500204e-02 3.754191892145498e-02
2.735170564595717e-02 5.938055476252384e-02 2.977973611722183e-02
-3.311007952729169e-02 7.378254933303771e-02 1.135641873386303e-02
-1.174144398969585e-02 3.767908440900913e-01 6.273239269886945e-02
2.457299172079892e-02 3.393155310618675e-01 7.510892449294872e-02
-1.194910200564990e-01 2.974169225640759e-01 4.142002932815304e-02
-1.721352232109343e-01 3.259420225419023e-01 3.748004407808550e-02
1.429940588238363e-02 2.341922027337112e-01 4.199433266172306e-02
4.084633906036601e-02 2.116266844642261e-01 5.416422627865001e-02
-8.298866057124289e-02 1.803041091215471e-01 2.675474689481580e-02
-1.259835543467628e-01 1.978369736357038e-01 3.101194713838590e-02
8.230359980591545e-03 3.623950928124618e-01 6.896820513937688e-02
-4.790588135390221e-02 3.175165324906348e-01 5.741659053002540e-02
-1.477417837786683e-01 3.139613126951680e-01 3.895207937890018e-02
-9.080358188868010e-02 3.509531662200449e-01 5.067024488754949e-02
6.926027492134537e-02 2.824395417948053e-01 8.880181169651635e-02
-6.891968689174878e-02 2.426807152769200e-01 4.033807962167527e-02
7.789254735532435e-02 1.641153027998150e-01 6.966841976986742e-02
-3.504831635275240e-02 1.351486313496582e-01 2.558533885878807e-02
4.372658736539094e-02 3.118506798470696e-01 8.203154756592676e-02
1.418394096115187e-03 2.620839920011869e-01 6.471833665083891e-02
-9.708771345900274e-02 2.705716955102103e-01 4.002368499978610e-02
-9.186783421393495e-02 7.053612694715161e-01 9.362263660134612e-02
-4.213046926458967e-02 6.290131124609745e-01 1.036525438088562e-01
-2.128256217884698e-01 5.673970758843662e-01 5.076842255749046e-02
-2.743507574392779e-01 6.313374367462775e-01 4.271009388459589e-02
-4.686506185059270e-02 5.349693320969935e-01 8.099863251110954e-02
-4.346885900932431e-03 4.797457965086642e-01 9.192037599002781e-02
-1.626637437554808e-01 4.288883814804299e-01 5.024690866447554e-02
-2.215734978156842e-01 4.723387783486515e-01 4.289740372207858e-02
-6.606547652859897e-02 6.677471201812983e-01 9.936005791975448e-02
-1.278153850193795e-01 5.970108039657657e-01 7.640374928153176e-02
-2.392221977165221e-01 6.021353191088669e-01 4.936063876459233e-02
-1.841332190201117e-01 6.674659989275591e-01 6.743442322648202e-02
9.958538779595015e-03 5.509863088577078e-01 1.133322642381449e-01
-1.532365409899778e-01 4.960441957246723e-01 5.505019452399836e-02
4.463819312054976e-02 4.131159883261848e-01 1.037602410218480e-01
-1.093216856461595e-01 3.643885486923658e-01 4.969088139107446e-02
-1.827803285499564e-02 5.897309485183276e-01 1.080122063004176e-01
-7.104059390020574e-02 5.235832021548975e-01 8.460836905878315e-02
-1.844333851905378e-01 5.325383406975913e-01 5.186224752173376e-02
-2.088424532285204e-01 1.043335525703525e+00 9.695732950193263e-02
-1.407071360304147e-01 9.318390865373061e-01 1.097885736677044e-01
-3.162580925501525e-01 8.648307898990210e-01 4.170096344144503e-02
-3.934235487595566e-01 9.831163899026099e-01 1.833368042328739e-02
-1.491024602925823e-01 8.784005678506976e-01 9.883882111757798e-02
-8.950623909878008e-02 7.809168706072184e-01 1.097253528311336e-01
-2.657421176135838e-01 7.148049322850233e-01 4.586121310424314e-02
-3.315327488562090e-01 8.090750159289112e-01 3.265321622644787e-02
-1.719882883742990e-01 9.887508860403973e-01 1.047643364590357e-01
-2.278076888809314e-01 8.991593468614447e-01 7.616535336280623e-02
-3.555719485285931e-01 9.167728233133614e-01 3.147540058820331e-02
-3.018318593315766e-01 1.010203188465156e+00 5.786179338056043e-02
-7.632648696022165e-02 8.398550895564233e-01 1.219191595858099e-01
-2.474327415514083e-01 7.788192011113149e-01 5.760634104953415e-02
-3.156402368124940e-02 6.943803591789112e-01 1.189149764409836e-01
-1.994510400390875e-01 6.351265242366066e-01 5.694827769155252e-02
-1.089135488417574e-01 8.832850573165730e-01 1.155925737076183e-01
-1.620488297267293e-01 8.088468917875093e-01 8.954475846197500e-02
-2.800052058399622e-01 8.208298447127754e-01 5.104997973475429e-02
3.868262195898362e-01 2.408588010637163e-01 -4.121625193469023e-02
2.029875331630552e-01 1.509429742922287e-01 -1.942439299013396e-02
1.466844620712678e-01 1.185402579062637e-01 -3.050690068706167e-02
2.763843088547140e-01 1.787690098149223e-01 -5.014336733904592e-02
3.762654202582120e-01 3.581994851408403e-01 3.496966516881999e-02
1.014411903611304e-01 2.440099759929734e-01 1.100505184033464e-02
7.390042281446801e-02 1.955126469620127e-01 -6.996883478926855e-03
2.526498615161255e-01 2.850257512822922e-01 6.351278566570735e-03
2.963101292725364e-01 2.074881429093102e-01 -3.066394230963475e-02
1.790328391546419e-01 1.320600712889301e-01 -2.750799085004286e-02
2.095265348429468e-01 1.562797570977215e-01 -4.036693590372609e-02
3.308412522181641e-01 2.067644787262160e-01 -4.632882845114955e-02
3.721647026006777e-01 3.042448268440173e-01 -4.441990731856778e-03
1.554873482478437e-01 1.953799861789551e-01 -4.770284303324660e-03
1.101903478821185e-01 1.567602196140833e-01 -1.482558378298611e-02
2.633187501679982e-01 2.317812743463707e-01 -2.164881117869898e-02
2.418148245494914e-01 3.171866464249978e-01 2.641292679711902e-02
9.063794053239724e-02 2.197188076086258e-01 1.188179757646874e-03
1.556074021366382e-01 2.544187678950608e-01 9.727557253391203e-03
2.989232970211714e-01 3.229608855380073e-01 2.034922397368838e-02
2.241934304023847e-01 2.327299001972271e-01 -1.140047122043906e-02
2.555391685801274e-01 1.775868939592466e-01 -3.825021413947050e-02
1.985034083909159e-01 2.839610958170635e-01 1.227875737164517e-02
3.155476134909709e-01 2.651452057024175e-01 -1.591068199257570e-02
1.348822589197881e-01 1.752074056059519e-01 -1.206796570208967e-02
2.653024284411107e-01 2.639396586201910e-01 -1.907775037737144e-03
1.831876024101849e-01 2.041935797826857e-01 -1.591890581485018e-02
6.303882776090494e-02 3.606744784276179e-02 -2.987647720329394e-04
5.246023347331218e-02 3.743166331879835e-02 -1.207663536343396e-02
-1.068167887198857e-02 6.369665438086816e-02 -8.563591033795800e-03
-9.928496477817107e-03 6.307351164829976e-02 -6.002426363602978e-03
1.227099094788352e-01 8.880058210643138e-02 -8.612383992953570e-03
6.089833539526574e-02 3.835510288422001e-02 -8.715827696730698e-03
9.367374083573209e-02 7.732042773026575e-02 -2.029899738585452e-02
2.576536640561234e-02 4.778781314903094e-02 -5.296714196969952e-03
2.110727321179784e-02 4.840448222557243e-02 -8.779073236855969e-03
2.469147940357472e-02 1.474912434215271e-01 -3.538867358263116e-03
-9.208095068101973e-03 6.522090702355025e-02 -7.169023830689052e-03
1.803698825414751e-02 1.289548125809155e-01 -6.395944690849869e-03
6.580600934911668e-02 1.094572656072757e-01 -1.051434820988663e-02
1.122106368641650e-01 8.276881372655659e-02 -1.725463425128802e-02
2.155211474872436e-02 1.400966486382302e-01 -3.849513290134198e-03
2.540863551244203e-02 4.961189353397942e-02 -7.465708709975313e-03
7.237739509045786e-02 1.162106046668754e-01 -5.910951183862798e-03
5.517399993731876e-02 1.015679481842650e-01 -1.238421510192230e-02
0.000000000000000e+00 0.000000000000000e+00 0.000000000000000e+00
0.000000000000000e+00 0.000000000000000e+00 0.000000000000000e+00
0.000000000000000e+00 0.000000000000000e+00 0.000000000000000e+00
0.000000000000000e+00 0.000000000000000e+00 0.000000000000000e+00
2.467737041687210e-02 7.671722599220399e-03 5.114346834179957e-03
0.000000000000000e+00 0.000000000000000e+00 0.000000000000000e+00