<?xml version="1.0" ?> 
<!-- 
# vtk DataFile Version 3.0
-->
<VTKFile type="UnstructuredGrid" version="0.1" compressor="vtkZLibDataCompressor" byte_order="LittleEndian">
  <UnstructuredGrid>
    <FieldData>
      <DataArray type="Float64" Name="TIME" NumberOfTuples="1" format="ascii">
1.000000010000000e+00 
      </DataArray>
    </FieldData>

    <Piece NumberOfPoints="60" NumberOfCells="10" >
      <Points>
        <DataArray type="Float64" NumberOfComponents="3" format="ascii">
1.000000000000000e-01 3.000000000000000e-01 7.500000000000000e+00
3.040046966722055e-01 3.122545096188934e-01 7.611853999827892e+00
5.028630254055999e-01 3.464122489733114e-01 7.728417971723803e+00
6.974944211856585e-01 3.986961607845143e-01 7.847461920946584e+00
8.888183189978567e-01 4.653291877737628e-01 7.966755852755089e+00
1.077754153827670e+00 5.425342726623178e-01 8.084069772408171e+00
1.077754153827670e+00 5.425342726623178e-01 8.084069772408171e+00
1.265220427887041e+00 6.289068421789896e-01 8.197811453435444e+00
1.450927107258712e+00 7.255575671920756e-01 8.307755251294834e+00
1.633980822734354e+00 8.324822566320665e-01 8.413721044137642e+00
1.813488205105640e+00 9.496767194294529e-01 8.515528710115182e+00
1.988555885164241e+00 1.077136764514725e+00 8.612998127378757e+00
1.348502602540075e+00 3.270545736407307e-01 9.943614873581829e+00
1.224894889093156e+00 4.409848324755692e-01 1.008978781105691e+01
1.102688921619166e+00 5.494607855729774e-01 1.023993902722758e+01
9.796355065395930e-01 6.498413392909801e-01 1.039326232613712e+01
8.534854502759291e-01 7.394853999876021e-01 1.054895151182878e+01
7.219895592496640e-01 8.157518740208681e-01 1.070620038834582e+01
7.219895592496640e-01 8.157518740208681e-01 1.070620038834582e+01
5.852393455993999e-01 8.789069004449250e-01 1.086492909853266e+01
4.447615834503436e-01 9.301500989465915e-01 1.102482651543837e+01
3.004599722014529e-01 9.682405968341429e-01 1.118473953841609e+01
1.522382112516857e-01 9.919375214158540e-01 1.134351506681892e+01
0.000000000000000e+00 1.000000000000000e+00 1.150000000000000e+01
1.000000000000000e-01 3.000000000000000e-01 1.250000000000000e+01
3.039158981716855e-01 3.125944118098734e-01 1.261188136278212e+01
5.025850827687878e-01 3.475955464378634e-01 1.272849098237657e+01
6.969606645625748e-01 4.010144072102446e-01 1.284757587385631e+01
8.879957543243149e-01 4.688619974532912e-01 1.296688305229433e+01
1.076643462825277e+00 5.471493204932774e-01 1.308415953276360e+01
1.076643462825277e+00 5.471493204932774e-01 1.308415953276360e+01
1.263750897761184e+00 6.345518373094852e-01 1.319780269450631e+01
1.448935337756856e+00 7.323856984546449e-01 1.330759618935501e+01
1.631305149977207e+00 8.406229416152035e-01 1.341336644126822e+01
1.809968701587151e+00 9.592356044776080e-01 1.351493987420448e+01
1.984034359751599e+00 1.088195724728305e+00 1.361214291212233e+01
1.138539326447935e+00 9.210840269498567e-02 1.494486206607974e+01
1.072470071210103e+00 2.435913314416384e-01 1.509408418270594e+01
9.998078780807156e-01 3.873427251022725e-01 1.524688185158265e+01
9.171150844607671e-01 5.214320517282282e-01 1.540159024964268e+01
8.209540277512516e-01 6.439287793708458e-01 1.555654455381884e+01
7.078870453531636e-01 7.529023760814653e-01 1.571007994104394e+01
7.078870453531636e-01 7.529023760814653e-01 1.571007994104394e+01
5.793637231611725e-01 8.408001139202341e-01 1.586421992060475e+01
4.412005962934459e-01 9.045972698404904e-01 1.602137149681210e+01
2.965104259863983e-01 9.491553192332155e-01 1.618044508913466e+01
1.484059734764447e-01 9.793357374893915e-01 1.634035111704108e+01
0.000000000000000e+00 1.000000000000000e+00 1.650000000000000e+01
1.342306031619362e+00 3.208539615405600e-01 1.994347184085466e+01
1.220693642942307e+00 4.368977601019067e-01 2.008967741547987e+01
1.100278578658776e+00 5.471502137517197e-01 2.024000135824879e+01
9.786279067185810e-01 6.488752813215031e-01 2.039351901823951e+01
8.533086950715334e-01 7.393369216427612e-01 2.054930574453008e+01
7.218880116674445e-01 8.157990935469984e-01 2.070643688619855e+01
7.218880116674445e-01 8.157990935469984e-01 2.070643688619855e+01
5.848960957455575e-01 8.788421848246437e-01 2.086496490652291e+01
4.443756193942160e-01 9.300358948706197e-01 2.102476931286364e+01
3.001622998370735e-01 9.681281499230732e-01 2.118466602042234e+01
1.520918542977836e-01 9.918668762201510e-01 2.134347094440060e+01
0.000000000000000e+00 1.000000000000000e+00 2.150000000000000e+01
        </DataArray>
      </Points>

      <Cells>
        <DataArray type="Int32" Name="connectivity" format="ascii">
0 1 2 3 4 5 6 7 8 9 10 11 12 13 14 15 16 17 18 19 20 21 22 23 24 25 26 27 28 29 30 31 32 33 34 35 36 37 38 39 40 41 42 43 44 45 46 47 48 49 50 51 52 53 54 55 56 57 58 59 
        </DataArray>
        <DataArray type="Int32" Name="offsets" format="ascii">
6 12 18 24 30 36 42 48 54 60 
        </DataArray>
        <DataArray type="UInt8" Name="types" format="ascii">
4 4 4 4 4 4 4 4 4 4 
        </DataArray>
      </Cells>

  <PointData>
        <DataArray type="Float64" Name="base_vector_1" NumberOfComponents="3" format="ascii">
8.858315352803766e-01 -5.995314628838412e-17 4.640069946701353e-01
8.653938504410552e-01 1.014720294451078e-01 4.907106182457190e-01
8.427885554756371e-01 1.864464179927210e-01 5.049209680504193e-01
8.223736388157670e-01 2.550758831237112e-01 5.085645406726399e-01
8.074189951773930e-01 3.079559645149680e-01 5.032272748434696e-01
8.001837786808790e-01 3.458074273905462e-01 4.900236152447375e-01
8.001837786808790e-01 3.458074273905461e-01 4.900236152447374e-01
7.915050302465575e-01 3.879900971248896e-01 4.722112574128396e-01
7.803305527824478e-01 4.293132020406876e-01 4.547245352384355e-01
7.668228552898119e-01 4.696639757590955e-01 4.374910953143392e-01
7.511426789125393e-01 5.089425033138095e-01 4.204309744021805e-01
7.334485998549811e-01 5.470603462370159e-01 4.034577164286292e-01
-5.461906189454693e-01 5.330567900071155e-01 6.461627243994160e-01
-5.453683201851829e-01 5.081323373534069e-01 6.666145235997760e-01
-5.531290778096678e-01 4.756013683743808e-01 6.839967556076882e-01
-5.687317763467394e-01 4.337284957822870e-01 6.988732063256670e-01
-5.909083482178654e-01 3.808401825982569e-01 7.111877946962825e-01
-6.178844334962377e-01 3.154034807101457e-01 7.202357053069223e-01
-6.178844334962368e-01 3.154034807101456e-01 7.202357053069220e-01
-6.335483988071560e-01 2.622144103036964e-01 7.279148503760408e-01
-6.512524799847266e-01 2.047080733582908e-01 7.307289593383310e-01
-6.701939798942307e-01 1.421987859967497e-01 7.284363627487183e-01
-6.892768941428280e-01 7.410307461906857e-02 7.206983401762614e-01
-7.071067811881098e-01 -1.052158360437261e-12 7.071067811849854e-01
8.858315352803766e-01 -8.836881861160055e-18 4.640069946701353e-01
8.649771399042052e-01 1.040738988655414e-01 4.909003677102575e-01
8.417648387167418e-01 1.907110408716080e-01 5.050358949518794e-01
8.208529179944966e-01 2.600871334172696e-01 5.084832052789038e-01
8.057166671152697e-01 3.128543421058856e-01 5.029342034085128e-01
7.987347805557554e-01 3.497871956445150e-01 4.895627315203795e-01
7.987347805557554e-01 3.497871956445150e-01 4.895627315203795e-01
7.895458554741671e-01 3.926685519244104e-01 4.716235261658949e-01
7.778477966403091e-01 4.345361822307904e-01 4.540166424197529e-01
7.638194651675468e-01 4.752820663753284e-01 4.366769767381387e-01
7.476370136354111e-01 5.148124841666420e-01 4.195318843526615e-01
7.294733753212701e-01 5.530465408426015e-01 4.025023209366952e-01
-2.784092636997302e-01 6.953845906845826e-01 6.625168321821041e-01
-3.062348406083220e-01 6.638498030895306e-01 6.822929439292094e-01
-3.489988809343201e-01 6.281280838890064e-01 6.954530115949729e-01
-4.062344908887114e-01 5.847976173639173e-01 7.021291085960440e-01
-4.762959055894984e-01 5.299494321138848e-01 7.016379477485887e-01
-5.561049519489871e-01 4.594643678556350e-01 6.925603057415556e-01
-5.561049519489867e-01 4.594643678556352e-01 6.925603057415557e-01
-6.075728235879867e-01 3.524079289799760e-01 7.118032843625866e-01
-6.451000840027077e-01 2.510295151213386e-01 7.216855715321222e-01
-6.720870302311104e-01 1.577486524548373e-01 7.234738325909307e-01
-6.917817029735875e-01 7.391204399827023e-02 7.183140574866687e-01
-7.071067811881107e-01 -1.051936315832336e-12 7.071067811849854e-01
-5.376034924254367e-01 5.420290786333971e-01 6.459001183215587e-01
-5.369676734556432e-01 5.162062539271488e-01 6.672307105268275e-01
-5.458980439637355e-01 4.824710158558687e-01 6.849941930086515e-01
-5.636272433223986e-01 4.389036887197102e-01 6.997770234960740e-01
-5.887732600084221e-01 3.836280627768390e-01 7.114601589331236e-01
-6.193507750440181e-01 3.149121879582200e-01 7.191904694361158e-01
-6.193507750440181e-01 3.149121879582199e-01 7.191904694361156e-01
-6.341217502854262e-01 2.619643893878489e-01 7.275055082317934e-01
-6.512431759668327e-01 2.046732132087108e-01 7.307470161084855e-01
-6.699116172506345e-01 1.423078231114103e-01 7.286747618477880e-01
-6.890111771760492e-01 7.423837642102465e-02 7.209384586723369e-01
-7.071067811881095e-01 -1.052047338134798e-12 7.071067811849853e-01
        </DataArray>
        <DataArray type="Float64" Name="base_vector_2" NumberOfComponents="3" format="ascii">
5.290723355705089e-17 1.000000000000000e+00 2.820270062611307e-17
-9.483511198936952e-02 9.947500306401484e-01 -3.845358338812437e-02
-1.741969863807348e-01 9.820836925422525e-01 -7.188206159011150e-02
-2.387407414601722e-01 9.660758579260191e-01 -9.849007614756596e-02
-2.893495197528167e-01 9.500306381729552e-01 -1.171266065055325e-01
-3.268419718742834e-01 9.364856449633308e-01 -1.271572341589130e-01
-3.268419718742833e-01 9.364856449633308e-01 -1.271572341589130e-01
-3.669529785220841e-01 9.195701434823330e-01 -1.404858098515732e-01
-4.053095325143243e-01 9.009339831584436e-01 -1.550552831840348e-01
-4.418558969191346e-01 8.806494043507840e-01 -1.709385649126509e-01
-4.765334718484643e-01 8.587770581913559e-01 -1.881962128531005e-01
-5.092791771257815e-01 8.353664016512941e-01 -2.068760371291366e-01
-2.174835202187051e-01 6.546948509417609e-01 -7.239306393458047e-01
-3.224040731974726e-01 6.069440377667419e-01 -7.264121065931396e-01
-4.155500793056759e-01 5.540916778251755e-01 -7.213186148671948e-01
-4.960159747446753e-01 4.969371150578576e-01 -7.120545319538832e-01
-5.632569239231074e-01 4.363573715184976e-01 -7.016650782062243e-01
-6.169541566934713e-01 3.733782842654757e-01 -6.927887306947320e-01
-6.169541566934710e-01 3.733782842654763e-01 -6.927887306947316e-01
-6.603940277846726e-01 3.069078559259657e-01 -6.853373592890321e-01
-6.920080357485048e-01 2.349874812049937e-01 -6.825728987708413e-01
-7.109267332013390e-01 1.588442062502220e-01 -6.850924741671077e-01
-7.162539221386635e-01 7.994070180594870e-02 -6.932458461583124e-01
-7.071067811849854e-01 -4.356515148629114e-13 -7.071067811881099e-01
8.007950951591440e-18 1.000000000000000e+00 3.756810555196686e-18
-9.711548558452235e-02 9.944803635651948e-01 -3.971635611332493e-02
-1.778886722605023e-01 9.812606878548844e-01 -7.404784096754391e-02
-2.430281420961101e-01 9.647328707676788e-01 -1.011326367186491e-01
-2.934869558136214e-01 9.484266481116558e-01 -1.198010847986902e-01
-3.301370641083545e-01 9.350170584686764e-01 -1.294319098000951e-01
-3.301370641083545e-01 9.350170584686764e-01 -1.294319098000951e-01
-3.707633785349316e-01 9.176064214149304e-01 -1.432933093882903e-01
-4.095193763996808e-01 8.984625982306209e-01 -1.582998418631505e-01
-4.463489769897921e-01 8.776743114601935e-01 -1.745290627461271e-01
-4.811948666225254e-01 8.553184909292305e-01 -1.920462949673174e-01
-5.139967588741616e-01 8.314605962133382e-01 -2.109042645643214e-01
-7.707037702730685e-02 6.713903454283525e-01 -7.370855859738856e-01
-1.890099651221294e-01 6.600571053913420e-01 -7.270487265011434e-01
-2.930880337742167e-01 6.317257462557280e-01 -7.176503229122155e-01
-3.870070495935720e-01 5.859591227082683e-01 -7.119532639716144e-01
-4.678214978299807e-01 5.229150569394893e-01 -7.125327286476630e-01
-5.318770295565398e-01 4.435671909501350e-01 -7.213563422766298e-01
-5.318770295565400e-01 4.435671909501346e-01 -7.213563422766299e-01
-6.065111240868883e-01 3.727880110489739e-01 -7.022630242131570e-01
-6.616255895753369e-01 2.889539954830456e-01 -6.919228047358117e-01
-6.966370550294281e-01 1.964739178545178e-01 -6.899962414120978e-01
-7.116212853560299e-01 9.912319280152360e-02 -6.955355770031207e-01
-7.071067811849854e-01 -4.363176486776865e-13 -7.071067811881101e-01
-2.175285837403109e-01 6.509289081477962e-01 -7.273052122688605e-01
-3.232345175343215e-01 6.046715165805703e-01 -7.279366756184964e-01
-4.167627010427099e-01 5.528781786097178e-01 -7.215501165108256e-01
-4.971797922846619e-01 4.962679801862595e-01 -7.117094533485070e-01
-5.638794681748478e-01 4.356972554007278e-01 -7.015752611139621e-01
-6.164403608894834e-01 3.722402821443807e-01 -6.938576610627826e-01
-6.164403608894833e-01 3.722402821443807e-01 -6.938576610627825e-01
-6.603295511013255e-01 3.060625387834059e-01 -6.857773737123284e-01
-6.922240128266326e-01 2.343870969656336e-01 -6.825603305512391e-01
-7.112553095897920e-01 1.584522510860987e-01 -6.848421487511389e-01
-7.165172423195041e-01 7.973931822899583e-02 -6.929968849765689e-01
-7.071067811849853e-01 -4.356515148629114e-13 -7.071067811881097e-01
        </DataArray>
        <DataArray type="Float64" Name="base_vector_3" NumberOfComponents="3" format="ascii">
-4.640069946701353e-01 -4.335151555644679e-19 8.858315352803766e-01
-4.920363656812049e-01 -1.325910184420035e-02 8.704736705182512e-01
-5.092768016463730e-01 -2.737433214268542e-02 8.601673007296795e-01
-5.164343680933344e-01 -4.041943321182213e-02 8.553723241202473e-01
-5.141511661423550e-01 -5.103832336924161e-02 8.561796936987663e-01
-5.028719973883220e-01 -5.841112855566672e-02 8.623850035242571e-01
-5.028719973883219e-01 -5.841112855566671e-02 8.623850035242571e-01
-4.887384767420784e-01 -6.208410222351838e-02 8.702185160078661e-01
-4.762440668892993e-01 -6.330981396144678e-02 8.770310463198595e-01
-4.655599585047748e-01 -6.222842188879001e-02 8.828258880131820e-01
-4.568375270532654e-01 -5.898722442083155e-02 8.875922381538628e-01
-4.502086972914394e-01 -5.373967405190679e-02 8.913047606267679e-01
-8.089355513322712e-01 -5.359338679143681e-01 -2.416571186890617e-01
-7.737111921925852e-01 -6.110813879960405e-01 -1.671841150371698e-01
-7.220570302063913e-01 -6.832172062860380e-01 -1.088480324315892e-01
-6.561343760020301e-01 -7.516203134724398e-01 -6.748766556948693e-02
-5.775542932565855e-01 -8.152012019372853e-01 -4.333634388007668e-02
-4.874283489721158e-01 -8.724157845860510e-01 -3.611514119345793e-02
-4.874283489721157e-01 -8.724157845860505e-01 -3.611514119345749e-02
-4.031081175506469e-01 -9.149050065444017e-01 -2.127615013959216e-02
-3.114403406324233e-01 -9.501976049111414e-01 -1.137654815358480e-02
-2.131272139666913e-01 -9.770097355716511e-01 -5.363512376110879e-03
-1.089847797713016e-01 -9.940413565474897e-01 -2.024660817960822e-03
1.052047338134798e-12 -1.000000000000000e+00 -4.360956040727615e-13
-4.640069946701353e-01 3.878439926463876e-19 8.858315352803766e-01
-4.923242121842307e-01 -1.332028746548153e-02 8.703099677925179e-01
-5.096936104971039e-01 -2.750929588751674e-02 8.599160784973146e-01
-5.168537599449513e-01 -4.056070871102641e-02 8.551122848723587e-01
-5.144764903277071e-01 -5.107889757211857e-02 8.559818263975596e-01
-5.030231299179647e-01 -5.824103480991329e-02 8.623083628446410e-01
-5.030231299179647e-01 -5.824103480991328e-02 8.623083628446410e-01
-4.890315523981340e-01 -6.172409341312261e-02 8.700794659405539e-01
-4.767039811193451e-01 -6.279542907705302e-02 8.768181387676671e-01
-4.662106984736934e-01 -6.160162647912328e-02 8.825263872790420e-01
-4.577012084083393e-01 -5.829567068586519e-02 8.871928869196547e-01
-4.513046937095278e-01 -5.303584265940316e-02 8.907924970660431e-01
-9.573653633127969e-01 -2.562718773178851e-01 -1.333277391427750e-01
-9.330034595231291e-01 -3.516078164096959e-01 -7.665825433362339e-02
-8.901118949688043e-01 -4.542881153492448e-01 -3.637475343525209e-02
-8.277675289459406e-01 -5.609488864775847e-01 -1.171600538962947e-02
-7.445033623072453e-01 -6.676177369034932e-01 -1.140563485713120e-03
-6.386345651841333e-01 -7.695067522664296e-01 -2.291368247343550e-03
-6.386345651841332e-01 -7.695067522664297e-01 -2.291368247343106e-03
-5.128347885978293e-01 -8.583925386501180e-01 -1.275653532999699e-02
-3.822269755508996e-01 -9.238451012114153e-01 -2.031669581606454e-02
-2.509897156360248e-01 -9.677362048882844e-01 -2.215401528771554e-02
-1.226100389821127e-01 -9.923263588159038e-01 -1.597422736707688e-02
1.052047338134798e-12 -1.000000000000000e+00 -4.358735594678365e-13
-8.146556328829424e-01 -5.315035601511512e-01 -2.320348365197431e-01
-7.792208700605942e-01 -6.065504599311202e-01 -1.578333780268233e-01
-7.268453594927552e-01 -6.793728273019222e-01 -1.007391925103658e-01
-6.596488344024974e-01 -7.490538324246675e-01 -6.149610883091872e-02
-5.791251968874319e-01 -8.142465296741295e-01 -4.020690542345773e-02
-4.862158974353032e-01 -8.730793126769404e-01 -3.642272445526418e-02
-4.862158974353031e-01 -8.730793126769403e-01 -3.642272445526396e-02
-4.023114337888876e-01 -9.152597341990457e-01 -2.109808514112377e-02
-3.109794877846890e-01 -9.503533893088636e-01 -1.096328446809069e-02
-2.129185516881241e-01 -9.770575047595915e-01 -4.931808997936438e-03
-1.089341047850833e-01 -9.940474357870177e-01 -1.748204772705986e-03
1.052047338134798e-12 -9.999999999999999e-01 -4.356515148629114e-13
        </DataArray>
        <DataArray type="Float64" Name="displacement" NumberOfComponents="3" format="ascii">
0.000000000000000e+00 0.000000000000000e+00 0.000000000000000e+00
-5.995303327819723e-03 1.225450961889346e-02 1.853999827940100e-03
-1.713697459441266e-02 4.641224897331137e-02 8.417971723826412e-03
-3.250557881432881e-02 9.869616078451426e-02 1.746192094655985e-02
-5.118168100211817e-02 1.653291877737628e-01 2.675585275504044e-02
-7.224584617233032e-02 2.425342726623178e-01 3.406977240817000e-02
-7.224584617233032e-02 2.425342726623178e-01 3.406977240817000e-02
-9.477957211298449e-02 3.289068421789896e-01 3.781145343549142e-02
-1.190728927413010e-01 4.255575671920757e-01 3.775525129485757e-02
-1.460191772656334e-01 5.324822566320666e-01 3.372104413761789e-02
-1.765117948943349e-01 6.496767194294528e-01 2.552871011513425e-02
-2.114441148357593e-01 7.771367645147254e-01 1.299812737875783e-02
3.485026025400746e-01 3.270545736407307e-01 1.441120037182841e-02
2.375932624758044e-01 2.847282540935626e-01 3.542732970576168e-03
1.524997705206367e-01 2.408067688889208e-01 -3.404797437770668e-03
8.949896614986275e-02 1.962074953771771e-01 -7.199359008087214e-03
4.486768883877479e-02 1.518478109087023e-01 -8.608919895262801e-03
1.488277806266403e-02 1.086450928338681e-01 -8.401448254177879e-03
1.488277806266403e-02 1.086450928338681e-01 -8.401448254177879e-03
-2.398243478374806e-03 7.028913900832945e-02 -6.714142944835189e-03
-8.872260462556514e-03 4.001355855767141e-02 -3.915472620294125e-03
-8.194044482485119e-03 1.805144573639605e-02 -1.120310125003243e-03
-4.018367130764866e-03 4.635894799005058e-03 5.564716965764660e-04
0.000000000000000e+00 0.000000000000000e+00 0.000000000000000e+00
0.000000000000000e+00 0.000000000000000e+00 0.000000000000000e+00
-6.084101828339739e-03 1.259441180987336e-02 1.881362782171436e-03
-1.741491723122479e-02 4.759554643786346e-02 8.490982376592626e-03
-3.303933543741255e-02 1.010144072102446e-01 1.757587385628767e-02
-5.200424567565998e-02 1.688619974532912e-01 2.688305229428423e-02
-7.335653717472312e-02 2.471493204932774e-01 3.415953276360284e-02
-7.335653717472312e-02 2.471493204932774e-01 3.415953276360284e-02
-9.624910223884164e-02 3.345518373094852e-01 3.780269450635920e-02
-1.210646622431564e-01 4.323856984546449e-01 3.759618935503184e-02
-1.486948500227803e-01 5.406229416152035e-01 3.336644126819621e-02
-1.800312984128243e-01 6.592356044776080e-01 2.493987420443666e-02
-2.159656402484007e-01 7.881957247283047e-01 1.214291212232688e-02
1.385393264479347e-01 9.210840269498567e-02 1.565839287974491e-02
8.516844459263584e-02 8.733475305909405e-02 7.839104628079241e-03
4.961872698184022e-02 7.868870841782755e-02 3.538026923536108e-03
2.697854407051725e-02 6.779820781445473e-02 1.128564501243545e-03
1.233626631363538e-02 5.629119029224461e-02 -1.015877903666862e-03
7.802641661636134e-04 4.579559489446527e-02 -4.521895556061750e-03
7.802641661636134e-04 4.579559489446527e-02 -4.521895556061750e-03
-8.273865916602285e-03 3.218235248363854e-02 -7.423320872742778e-03
-1.243324761945419e-02 1.446072945157029e-02 -7.370491246557975e-03
-1.214359069753973e-02 -1.033831864531320e-03 -5.414759406427549e-03
-7.850604906005920e-03 -7.965889127457437e-03 -2.607478081266379e-03
0.000000000000000e+00 0.000000000000000e+00 0.000000000000000e+00
3.423060316193616e-01 3.208539615405600e-01 1.426816765466299e-02
2.333920163248394e-01 2.806411817193625e-01 3.432337402003327e-03
1.500894275599005e-01 2.384961970672748e-01 -3.342466410323652e-03
8.849136632833132e-02 1.952414374077297e-01 -6.942666901931460e-03
4.469093363391730e-02 1.516993325641599e-01 -8.254687192433607e-03
1.478123048044455e-02 1.086923123599984e-01 -8.164950401450710e-03
1.478123048044455e-02 1.086923123599984e-01 -8.164950401450710e-03
-2.741493332217293e-03 7.022442338804813e-02 -6.678334954589360e-03
-9.258224518684077e-03 3.989935448169957e-02 -3.972675195019093e-03
-8.491716846864505e-03 1.793899882532635e-02 -1.193828118747575e-03
-4.164724084666976e-03 4.565249603302068e-03 5.123492782566075e-04
0.000000000000000e+00 0.000000000000000e+00 0.000000000000000e+00
        </DataArray>
  </PointData>
  <CellData>
        <DataArray type="Float64" Name="axial_strain_GPs" NumberOfComponents="3" format="ascii">
-1.407757246963248e-02 -1.244417506852880e-02 -7.864205157635973e-03
-7.864205157636084e-03 -1.311113318761548e-04 1.907179055299135e-03
4.424845130151400e-03 -6.376333955985469e-03 -1.520370414861383e-02
-1.520370414861449e-02 -1.529360385196643e-02 -1.517891025542195e-02
-1.415929485043754e-02 -1.216311244964507e-02 -7.556917111192440e-03
-7.556917111192440e-03 -2.099789771243810e-04 1.753789772688585e-03
2.944223445114469e-03 -5.999848559661292e-03 -7.622711502815904e-03
-7.622711502816015e-03 -1.124027542695449e-02 -2.332394711853270e-02
4.436136496983822e-03 -6.486975714506515e-03 -1.525863451199450e-02
-1.525863451199472e-02 -1.561181644337850e-02 -1.543387591028544e-02
        </DataArray>
        <DataArray type="Float64" Name="cross_section_radius" format="ascii">
1.000000000000000e-01
1.000000000000000e-01
1.000000000000000e-01
1.000000000000000e-01
1.000000000000000e-01
1.000000000000000e-01
1.000000000000000e-01
1.000000000000000e-01
1.000000000000000e-01
1.000000000000000e-01
        </DataArray>
        <DataArray type="Float64" Name="curvature_2_GPs" NumberOfComponents="3" format="ascii">
-1.347221820628328e-01 -4.761936574693546e-02 3.824973497331714e-02
5.738414772462169e-02 4.786446111670883e-02 3.920621263189584e-02
4.533040682869918e-01 3.219310102561659e-01 1.921838460750562e-01
2.539188838695449e-01 2.060401655314503e-01 1.638605963096919e-01
-1.361606475499643e-01 -4.787350001452842e-02 3.912611002362357e-02
5.688783219948616e-02 4.717964267883392e-02 3.833251953873719e-02
3.424928640484857e-01 1.798405911216810e-01 2.693427295742912e-02
-2.415636343123928e-02 6.345533452141205e-02 1.601276588198314e-01
4.504483829419480e-01 3.096464878510918e-01 1.710428754400357e-01
2.566628531662368e-01 2.070093680800779e-01 1.632499779801727e-01
        </DataArray>
        <DataArray type="Float64" Name="curvature_3_GPs" NumberOfComponents="3" format="ascii">
4.254863332321399e-01 2.986947511988970e-01 1.710329814004772e-01
1.879435476455081e-01 1.876659977913464e-01 1.872096360717740e-01
-1.379346139145237e-01 -1.147527520352647e-01 -7.718815251609755e-02
-5.801880234608952e-02 1.158822845812616e-02 8.452081755630005e-02
4.362956894392925e-01 3.022750267428631e-01 1.673789065407473e-01
1.914868043781658e-01 1.901959615625372e-01 1.887310511779731e-01
-1.402604064223644e-01 -5.219345655163157e-02 5.262528268171644e-02
-1.239989896920230e-01 -2.533519209201227e-02 6.494411834069988e-02
-1.428201037446523e-01 -1.137817381855505e-01 -6.938776194725729e-02
-6.191908993292531e-02 1.033869802684154e-02 8.605645841396224e-02
        </DataArray>
        <DataArray type="Float64" Name="element_owner" format="ascii">
1.000000000000000e+00
1.000000000000000e+00
1.000000000000000e+00
1.000000000000000e+00
1.000000000000000e+00
1.000000000000000e+00
1.000000000000000e+00
1.000000000000000e+00
1.000000000000000e+00
1.000000000000000e+00
        </DataArray>
        <DataArray type="Float64" Name="material_axial_force_GPs" NumberOfComponents="3" format="ascii">
-4.422599825097533e-03 -3.909452897527532e-03 -2.470612914955213e-03
-2.470612914955248e-03 -4.118983970245010e-05 5.991579709208085e-04
1.390106095415621e-03 -2.003184391295909e-03 -4.776384526063786e-03
-4.776384526063995e-03 -4.804627350825030e-03 -4.768595294793237e-03
-4.448273668214637e-03 -3.821154471659152e-03 -2.374075528030917e-03
-2.374075528030917e-03 -6.596684119422544e-05 5.509693065819372e-04
9.249550745698446e-04 -1.884908015768322e-03 -2.394745445768086e-03
-2.394745445768121e-03 -3.531236670564611e-03 -7.327434092029914e-03
1.393653382924594e-03 -2.037943524870907e-03 -4.793641408669358e-03
-4.793641408669429e-03 -4.904596784771023e-03 -4.848695117616923e-03
        </DataArray>
        <DataArray type="Float64" Name="material_bending_moment_2_GPs" NumberOfComponents="3" format="ascii">
-1.058105543610456e-04 -3.740016239979448e-05 3.004127159848243e-05
4.506940423104575e-05 3.759265985307170e-05 3.079248739486083e-05
3.560241826931949e-04 2.528440241958778e-04 1.509408397420071e-04
1.994274250430705e-04 1.618235675945073e-04 1.286958113948427e-04
-1.069403225127492e-04 -3.759975898681834e-05 3.072957495344045e-05
4.467959892913866e-05 3.705480470970404e-05 3.010629044412100e-05
2.689932664004127e-04 1.412464699712798e-04 2.115412851321039e-05
-1.897236347325662e-05 4.983770319088774e-05 1.257639691462288e-04
3.537813326679565e-04 2.431957828607179e-04 1.343367602328226e-04
2.015825334891113e-04 1.625847774961596e-04 1.282162328803015e-04
        </DataArray>
        <DataArray type="Float64" Name="material_bending_moment_3_GPs" NumberOfComponents="3" format="ascii">
3.341761846712374e-04 2.345943090080715e-04 1.343289894723248e-04
1.476105171431829e-04 1.473925299974731e-04 1.470341043410760e-04
-1.083335924374031e-04 -9.012660069329972e-05 -6.062343322218515e-05
-4.556786080513828e-05 9.101373348042333e-06 6.638249487756887e-05
3.426658331838439e-04 2.374062508447593e-04 1.314590857885761e-04
1.503933844734579e-04 1.493795588968284e-04 1.482290209712499e-04
-1.101602656015047e-04 -4.099264491701595e-05 4.133180036649164e-05
-9.738857876725401e-05 -1.989821333838800e-05 5.100699126825223e-05
-1.121706471772830e-04 -8.936396819910069e-05 -5.449702079563524e-05
-4.863113951256098e-05 8.119994442202170e-06 6.758858438681485e-05
        </DataArray>
        <DataArray type="Float64" Name="material_shear_force_2_GPs" NumberOfComponents="3" format="ascii">
2.907203039422159e-05 2.015391330712819e-04 -5.717425288039170e-05
-5.717425288038189e-05 2.767369040200415e-04 2.109299397988534e-03
-8.403034815745521e-04 -5.891437979167893e-04 -2.870210968212455e-04
-2.870210968212106e-04 -1.892762321913981e-04 -3.385376854587329e-04
4.067362385413412e-05 2.133359697867088e-04 -6.872211097299151e-05
-6.872211097300242e-05 3.020137877878712e-04 2.224367929246654e-03
3.757462932546805e-04 -2.417987673575843e-04 3.211605969067258e-04
3.211605969066997e-04 -1.707941783516247e-04 -5.821936838935622e-03
-7.258326162401358e-04 -5.839763866707710e-04 -2.606625563720161e-04
-2.606625563719986e-04 -1.922424636297783e-04 -4.197662642064592e-04
        </DataArray>
        <DataArray type="Float64" Name="material_shear_force_3_GPs" NumberOfComponents="3" format="ascii">
2.275524264574532e-04 1.879498716279364e-04 2.424370688104531e-04
2.424370688104618e-04 2.294896089745817e-04 5.243898995581122e-05
3.068403833758484e-03 -2.840381954761883e-04 9.407431591103418e-05
9.407431591110067e-05 -7.798145694977444e-05 1.191150033384180e-04
2.421732854753017e-04 1.916286759795454e-04 2.423352683558919e-04
2.423352683558919e-04 2.304537562966257e-04 6.045663793588393e-05
1.389347423678088e-03 -2.758853670444088e-04 -1.188050623262067e-04
-1.188050623261764e-04 1.744571910377617e-04 -1.239951846317085e-02
2.909881494583385e-03 -2.946912747363265e-04 1.344842557945333e-04
1.344842557945322e-04 -8.128646380136231e-05 6.157453997365522e-05
        </DataArray>
        <DataArray type="Float64" Name="material_torque_GPs" NumberOfComponents="3" format="ascii">
3.848115460773189e-05 3.599948356835842e-05 3.709681439648394e-05
3.050482332513864e-05 1.492634956451048e-05 -9.565736881474063e-07
-1.335764777653571e-06 -5.380932450652852e-05 -1.028086993785571e-04
-1.146495210246966e-04 -1.150573882025384e-04 -1.121557165410797e-04
3.848139426822487e-05 3.583814573244832e-05 3.682562434225774e-05
2.994512290642092e-05 1.450662836560701e-05 -1.238429585091425e-06
-9.683117871865055e-06 -2.462437577539817e-05 -3.279280217383771e-05
-3.627984650106521e-05 -4.306608062857030e-05 -4.325236886044336e-05
-2.155281053458569e-06 -5.468281192507581e-05 -1.032992869262462e-04
-1.149798792767215e-04 -1.156679619674285e-04 -1.129156824361181e-04
        </DataArray>
        <DataArray type="Float64" Name="shear_strain_2_GPs" NumberOfComponents="3" format="ascii">
1.850782937183275e-04 1.283037970189992e-03 -3.639825985400150e-04
-3.639825985399525e-04 1.761761848429480e-03 1.342821702602537e-02
-5.349538111596774e-03 -3.750605905215587e-03 -1.827233053230348e-03
-1.827233053230126e-03 -1.204969918522814e-03 -2.155197842545864e-03
2.589363315938349e-04 1.358138965234318e-03 -4.374985464424552e-04