<?xml version="1.0" ?> 
<!-- 
# vtk DataFile Version 3.0
-->
<VTKFile type="UnstructuredGrid" version="0.1" compressor="vtkZLibDataCompressor" byte_order="LittleEndian">
  <UnstructuredGrid>
    <FieldData>
      <DataArray type="Float64" Name="TIME" NumberOfTuples="1" format="ascii">
1.000000010000000e+00 
      </DataArray>
    </FieldData>

    <Piece NumberOfPoints="60" NumberOfCells="10" >
      <Points>
        <DataArray type="Float64" NumberOfComponents="3" format="ascii">
1.000000000000000e-01 3.000000000000000e-01 7.500000000000000e+00
3.040046966722509e-01 3.122545096188183e-01 7.611853999827876e+00
5.028630254057415e-01 3.464122489730193e-01 7.728417971723742e+00
6.974944211859373e-01 3.986961607838943e-01 7.847461920946461e+00
8.888183189983043e-01 4.653291877727350e-01 7.966755852754910e+00
1.077754153828308e+00 5.425342726608327e-01 8.084069772407959e+00
1.077754153828308e+00 5.425342726608327e-01 8.084069772407959e+00
1.265220427887886e+00 6.289068421770239e-01 8.197811453435225e+00
1.450927107259783e+00 7.255575671896138e-01 8.307755251294624e+00
1.633980822735678e+00 8.324822566290979e-01 8.413721044137471e+00
1.813488205107247e+00 9.496767194259705e-01 8.515528710115076e+00
1.988555885166167e+00 1.077136764510727e+00 8.612998127378752e+00
1.348507215734809e+00 3.270495191184224e-01 9.943614959986768e+00
1.224880940961227e+00 4.409914884092500e-01 1.008980399549881e+01
1.102681804081513e+00 5.494647401757150e-01 1.023994560510348e+01
9.796439660655056e-01 6.498368450772454e-01 1.039325109404706e+01
8.535015878830440e-01 7.394753737732693e-01 1.054893176757578e+01
7.219888305039669e-01 8.157478969232146e-01 1.070619893093591e+01
7.219888305039669e-01 8.157478969232146e-01 1.070619893093591e+01
5.852224194969331e-01 8.789125356655529e-01 1.086494573987633e+01
4.447539162486067e-01 9.301574445567476e-01 1.102483438848908e+01
3.004697354534003e-01 9.682452443844517e-01 1.118472973953803e+01
1.522562918057270e-01 9.919385559363182e-01 1.134349665578705e+01
0.000000000000000e+00 1.000000000000000e+00 1.150000000000000e+01
1.000000000000000e-01 3.000000000000000e-01 1.250000000000000e+01
3.039158981717297e-01 3.125944118097997e-01 1.261188136278211e+01
5.025850827689267e-01 3.475955464375761e-01 1.272849098237651e+01
6.969606645628508e-01 4.010144072096317e-01 1.284757587385619e+01
8.879957543247620e-01 4.688619974522693e-01 1.296688305229416e+01
1.076643462825920e+00 5.471493204917913e-01 1.308415953276340e+01
1.076643462825920e+00 5.471493204917913e-01 1.308415953276340e+01
1.263750897762047e+00 6.345518373074983e-01 1.319780269450610e+01
1.448935337757967e+00 7.323856984521313e-01 1.330759618935481e+01
1.631305149978592e+00 8.406229416121531e-01 1.341336644126806e+01
1.809968701588836e+00 9.592356044740267e-01 1.351493987420439e+01
1.984034359753611e+00 1.088195724724215e+00 1.361214291212232e+01
1.138545816027729e+00 9.210978856263477e-02 1.494485828238088e+01
1.072460236149842e+00 2.436039952672258e-01 1.509410197232478e+01
9.998035063614298e-01 3.873497713462069e-01 1.524689148169187e+01
9.171235279467809e-01 5.214275655396812e-01 1.540158117412823e+01
8.209682021901826e-01 6.439178265877517e-01 1.555652541327992e+01
7.078854303759228e-01 7.529010032305210e-01 1.571007856279301e+01
7.078854303759228e-01 7.529010032305210e-01 1.571007856279301e+01
5.793477318228856e-01 8.408114241157796e-01 1.586423675190810e+01
4.411935507996956e-01 9.046084849329524e-01 1.602137911653569e+01
2.965196760154321e-01 9.491602349844438e-01 1.618043453032642e+01
1.484228961791738e-01 9.793347235726581e-01 1.634033186693097e+01
0.000000000000000e+00 1.000000000000000e+00 1.650000000000000e+01
1.342311388737953e+00 3.208499823602091e-01 1.994347192829266e+01
1.220680382489467e+00 4.369052772283724e-01 2.008969388504202e+01
1.100271996010034e+00 5.471549572361902e-01 2.024000823888557e+01
9.786366979556534e-01 6.488715564235938e-01 2.039350795458430e+01
8.533249569823260e-01 7.393276088305137e-01 2.054928599689922e+01
7.218872417460516e-01 8.157956484968809e-01 2.070643533059129e+01
7.218872417460516e-01 8.157956484968809e-01 2.070643533059129e+01
5.848790321139781e-01 8.788480829842861e-01 2.086498143836956e+01
4.443677785588073e-01 9.300432724479805e-01 2.102477707954136e+01
3.001719056450682e-01 9.681326798182839e-01 2.118465613376489e+01
1.521098379372894e-01 9.918677680255169e-01 2.134345248069837e+01
0.000000000000000e+00 1.000000000000000e+00 2.150000000000000e+01
        </DataArray>
      </Points>

      <Cells>
        <DataArray type="Int32" Name="connectivity" format="ascii">
0 1 2 3 4 5 6 7 8 9 10 11 12 13 14 15 16 17 18 19 20 21 22 23 24 25 26 27 28 29 30 31 32 33 34 35 36 37 38 39 40 41 42 43 44 45 46 47 48 49 50 51 52 53 54 55 56 57 58 59 
        </DataArray>
        <DataArray type="Int32" Name="offsets" format="ascii">
6 12 18 24 30 36 42 48 54 60 
        </DataArray>
        <DataArray type="UInt8" Name="types" format="ascii">
4 4 4 4 4 4 4 4 4 4 
        </DataArray>
      </Cells>

  <PointData>
        <DataArray type="Float64" Name="base_vector_1" NumberOfComponents="3" format="ascii">
8.858315352803766e-01 -4.184586741049954e-18 4.640069946701352e-01
8.653938504412424e-01 1.014720294444312e-01 4.907106182455288e-01
8.427885554760624e-01 1.864464179915180e-01 5.049209680501536e-01
8.223736388164130e-01 2.550758831221248e-01 5.085645406723910e-01
8.074189951781952e-01 3.079559645131247e-01 5.032272748433103e-01
8.001837786817426e-01 3.458074273885560e-01 4.900236152447315e-01
8.001837786817427e-01 3.458074273885559e-01 4.900236152447311e-01
7.915050302475034e-01 3.879900971228561e-01 4.722112574129247e-01
7.803305527834771e-01 4.293132020386288e-01 4.547245352386131e-01
7.668228552909213e-01 4.696639757570295e-01 4.374910953146124e-01
7.511426789137210e-01 5.089425033117553e-01 4.204309744025558e-01
7.334485998562233e-01 5.470603462349920e-01 4.034577164291151e-01
-5.462205436948615e-01 5.330298118533690e-01 6.461596840729481e-01
-5.453745429999872e-01 5.081255725565097e-01 6.666145890705317e-01
-5.531224888858270e-01 4.756081243627162e-01 6.839973862003619e-01
-5.687223976958351e-01 4.337406137578290e-01 6.988733178023635e-01
-5.909046041568153e-01 3.808478980482064e-01 7.111867738776789e-01
-6.178924067372011e-01 3.153954090311637e-01 7.202323997561997e-01
-6.178924067372014e-01 3.153954090311636e-01 7.202323997561997e-01
-6.335467055023432e-01 2.622140075349939e-01 7.279164692460023e-01
-6.512457892448085e-01 2.047129766780994e-01 7.307335486827589e-01
-6.701864666675497e-01 1.422059363271014e-01 7.284418793349253e-01
-6.892719650346995e-01 7.410876731580479e-02 7.207024690009989e-01
-7.071067811881102e-01 -1.051936315832336e-12 7.071067811849854e-01
8.858315352803766e-01 2.631672358715697e-17 4.640069946701351e-01
8.649771399043895e-01 1.040738988648770e-01 4.909003677100737e-01
8.417648387171653e-01 1.907110408704186e-01 5.050358949516225e-01
8.208529179951474e-01 2.600871334156877e-01 5.084832052786621e-01
8.057166671160884e-01 3.128543421040276e-01 5.029342034083569e-01
7.987347805566526e-01 3.497871956424794e-01 4.895627315203699e-01
7.987347805566525e-01 3.497871956424794e-01 4.895627315203703e-01
7.895458554751777e-01 3.926685519222632e-01 4.716235261659902e-01
7.778477966414210e-01 4.345361822286010e-01 4.540166424199432e-01
7.638194651687364e-01 4.752820663731637e-01 4.366769767384135e-01
7.476370136366450e-01 5.148124841645658e-01 4.195318843530105e-01
7.294733753225049e-01 5.530465408406728e-01 4.025023209371067e-01
-2.784814229296899e-01 6.953261457757077e-01 6.625478458826615e-01
-3.062545024620831e-01 6.638271363226358e-01 6.823061723327666e-01
-3.489891669674321e-01 6.281321331349415e-01 6.954542290206639e-01
-4.062157386893519e-01 5.848152019888347e-01 7.021253115817879e-01
-4.762844103434554e-01 5.299626926424745e-01 7.016357351724084e-01
-5.561112367430681e-01 4.594506982243777e-01 6.925643278925266e-01
-5.561112367430683e-01 4.594506982243777e-01 6.925643278925268e-01
-6.075748960316898e-01 3.523965737563356e-01 7.118071371634855e-01
-6.450994312481571e-01 2.510210668332512e-01 7.216890935916942e-01
-6.720851834617836e-01 1.577433037632409e-01 7.234767144068974e-01
-6.917801270492245e-01 7.390962034492343e-02 7.183158245787350e-01
-7.071067811881095e-01 -1.052102849286030e-12 7.071067811849854e-01
-5.376356435136100e-01 5.419984687580499e-01 6.458990437271410e-01
-5.369747825603515e-01 5.161981206416018e-01 6.672312815960756e-01
-5.458917026753904e-01 4.824778795945116e-01 6.849944121320605e-01
-5.636179838482958e-01 4.389165379255878e-01 6.997764221651068e-01
-5.887697646054761e-01 3.836361694850216e-01 7.114586802824692e-01
-6.193590518053980e-01 3.149030775579610e-01 7.191873307360489e-01
-6.193590518053989e-01 3.149030775579612e-01 7.191873307360491e-01
-6.341202062331748e-01 2.619630681892113e-01 7.275073298267797e-01
-6.512365081865195e-01 2.046773625665582e-01 7.307517962056801e-01
-6.699040508773653e-01 1.423144303531255e-01 7.286804275753274e-01
-6.890061847105060e-01 7.424377994743775e-02 7.209426735668998e-01
-7.071067811881107e-01 -1.051825293529873e-12 7.071067811849856e-01
        </DataArray>
        <DataArray type="Float64" Name="base_vector_2" NumberOfComponents="3" format="ascii">
8.688631027754949e-19 1.000000000000000e+00 7.359631307277059e-18
-9.483511198862465e-02 9.947500306402219e-01 -3.845358338806040e-02
-1.741969863793855e-01 9.820836925424995e-01 -7.188206159000632e-02
-2.387407414583516e-01 9.660758579264787e-01 -9.849007614747188e-02
-2.893495197506444e-01 9.500306381736183e-01 -1.171266065055197e-01
-3.268419718718674e-01 9.364856449641539e-01 -1.271572341590610e-01
-3.268419718718673e-01 9.364856449641539e-01 -1.271572341590610e-01
-3.669529785195516e-01 9.195701434832955e-01 -1.404858098518886e-01
-4.053095325117224e-01 9.009339831595382e-01 -1.550552831844763e-01
-4.418558969165074e-01 8.806494043520002e-01 -1.709385649131755e-01
-4.765334718458539e-01 8.587770581926808e-01 -1.881962128536644e-01
-5.092791771232273e-01 8.353664016527127e-01 -2.068760371296956e-01
-2.174917940774841e-01 6.546973816750206e-01 -7.239258649453200e-01
-3.224095370108931e-01 6.069417382446380e-01 -7.264116028953549e-01
-4.155539746367927e-01 5.540874420768147e-01 -7.213196245052095e-01
-4.960189032028156e-01 4.969323599804619e-01 -7.120558105020455e-01
-5.632588405019213e-01 4.363522680451414e-01 -7.016667134532552e-01
-6.169542668772617e-01 3.733721239757641e-01 -6.927919526234172e-01
-6.169542668772616e-01 3.733721239757641e-01 -6.927919526234174e-01
-6.603975327185330e-01 3.069038985884506e-01 -6.853357540727645e-01
-6.920135409456009e-01 2.349851727175001e-01 -6.825681121696631e-01
-7.109326033601121e-01 1.588429638319550e-01 -6.850866706634233e-01
-7.162581290563501e-01 7.994010017042896e-02 -6.932415689681617e-01
-7.071067811849854e-01 -4.363176486776865e-13 -7.071067811881100e-01
-2.590225813237266e-17 1.000000000000000e+00 -7.266456189794338e-18
-9.711548558378640e-02 9.944803635652688e-01 -3.971635611326971e-02
-1.778886722591615e-01 9.812606878551345e-01 -7.404784096745076e-02
-2.430281420942886e-01 9.647328707681464e-01 -1.011326367185645e-01
-2.934869558114303e-01 9.484266481123352e-01 -1.198010847986785e-01
-3.301370641058923e-01 9.350170584695271e-01 -1.294319098002299e-01
-3.301370641058923e-01 9.350170584695271e-01 -1.294319098002300e-01
-3.707633785322940e-01 9.176064214159544e-01 -1.432933093885574e-01
-4.095193763969592e-01 8.984625982317938e-01 -1.582998418635340e-01
-4.463489769870730e-01 8.776743114614806e-01 -1.745290627466075e-01
-4.811948666198903e-01 8.553184909305884e-01 -1.920462949678720e-01
-5.139967588716858e-01 8.314605962147157e-01 -2.109042645649241e-01
-7.704665320845339e-02 6.714402257814474e-01 -7.370426286395757e-01
-1.889806700671098e-01 6.600844029057527e-01 -7.270315587246143e-01
-2.930575116188473e-01 6.317422605798340e-01 -7.176482502460731e-01
-3.869799018801292e-01 5.859725732564205e-01 -7.119569501957926e-01
-4.678019732082436e-01 5.229295661445720e-01 -7.125348992956932e-01
-5.318682281568021e-01 4.435841463645976e-01 -7.213524055351413e-01
-5.318682281568021e-01 4.435841463645976e-01 -7.213524055351416e-01
-6.065070720456784e-01 3.728025740048176e-01 -7.022587930200381e-01
-6.616248424547004e-01 2.889654137357676e-01 -6.919187506574089e-01
-6.966381191027848e-01 1.964817073138712e-01 -6.899929490248149e-01
-7.116226177478197e-01 9.912710608876207e-02 -6.955336560858920e-01
-7.071067811849854e-01 -4.356515148629114e-13 -7.071067811881097e-01
-2.175377787145020e-01 6.509337557060340e-01 -7.272981235465945e-01
-3.232400106959958e-01 6.046700765688267e-01 -7.279354325676844e-01
-4.167661429630255e-01 5.528739748782718e-01 -7.215513495116083e-01
-4.971821788967423e-01 4.962628954754638e-01 -7.117113316238520e-01
-5.638811224848372e-01 4.356917815963482e-01 -7.015773308443198e-01
-6.164408108556434e-01 3.722339246480981e-01 -6.938606719311239e-01
-6.164408108556436e-01 3.722339246480979e-01 -6.938606719311242e-01
-6.603333668084652e-01 3.060584146544957e-01 -6.857755401722737e-01
-6.922297698990210e-01 2.343846605627142e-01 -6.825553285693770e-01
-7.112613568969040e-01 1.584509232322825e-01 -6.848361753821219e-01
-7.165215426646001e-01 7.973867389811107e-02 -6.929925127896496e-01
-7.071067811849856e-01 -4.363176486776865e-13 -7.071067811881100e-01
        </DataArray>
        <DataArray type="Float64" Name="base_vector_3" NumberOfComponents="3" format="ascii">
-4.640069946701352e-01 -6.116234942924137e-18 8.858315352803766e-01
-4.920363656810192e-01 -1.325910184386497e-02 8.704736705183611e-01
-5.092768016461307e-01 -2.737433214201596e-02 8.601673007298443e-01
-5.164343680931475e-01 -4.041943321085059e-02 8.553723241204061e-01
-5.141511661423176e-01 -5.103832336801883e-02 8.561796936988616e-01
-5.028719973885178e-01 -5.841112855425264e-02 8.623850035242386e-01
-5.028719973885175e-01 -5.841112855425260e-02 8.623850035242389e-01
-4.887384767424479e-01 -6.208410222197123e-02 8.702185160077689e-01
-4.762440668898273e-01 -6.330981395983153e-02 8.770310463196894e-01
-4.655599585054406e-01 -6.222842188716958e-02 8.828258880129449e-01
-4.568375270540450e-01 -5.898722441926695e-02 8.875922381535655e-01
-4.502086972923047e-01 -5.373967405045676e-02 8.913047606264182e-01
-8.089131208941088e-01 -5.359576084947713e-01 -2.416795496973589e-01
-7.737045290625979e-01 -6.110892969858794e-01 -1.671860425314480e-01
-7.220598357839270e-01 -6.832159384652495e-01 -1.088373785734325e-01
-6.561402914198894e-01 -7.516164644160149e-01 -6.747301975006414e-02
-5.775562547342976e-01 -8.152003291977526e-01 -4.332661875991639e-02
-4.874181021242951e-01 -8.724213391474853e-01 -3.611925693668994e-02
-4.874181021242951e-01 -8.724213391474853e-01 -3.611925693669016e-02
-4.031050368407747e-01 -9.149064494710093e-01 -2.127247023618950e-02
-3.114420991754923e-01 -9.501971194349720e-01 -1.136895239870994e-02
-2.131312585597875e-01 -9.770088968450661e-01 -5.355568159250756e-03
-1.089883056933202e-01 -9.940409805393706e-01 -2.019462905251457e-03
1.052158360437261e-12 -1.000000000000000e+00 -4.356515148629114e-13
-4.640069946701351e-01 -5.581972908519190e-18 8.858315352803766e-01
-4.923242121840522e-01 -1.332028746514285e-02 8.703099677926240e-01
-5.096936104968723e-01 -2.750929588684094e-02 8.599160784974734e-01
-5.168537599447740e-01 -4.056070871004518e-02 8.551122848725123e-01
-5.144764903276747e-01 -5.107889757088226e-02 8.559818263976527e-01
-5.030231299181559e-01 -5.824103480848099e-02 8.623083628446261e-01
-5.030231299181562e-01 -5.824103480848109e-02 8.623083628446259e-01
-4.890315523985017e-01 -6.172409341155843e-02 8.700794659404580e-01
-4.767039811198687e-01 -6.279542907542110e-02 8.768181387674993e-01
-4.662106984743472e-01 -6.160162647748418e-02 8.825263872788109e-01
-4.577012084090942e-01 -5.829567068427610e-02 8.871928869193696e-01
-4.513046937103510e-01 -5.303584265791828e-02 8.907924970657144e-01
-9.573462854748183e-01 -2.562997740991171e-01 -1.334110770674983e-01
-9.330029400075266e-01 -3.515993659298104e-01 -7.670332336390007e-02
-8.901257530389440e-01 -4.542595508306119e-01 -3.639236535351431e-02
-8.277894232121535e-01 -5.609165026222774e-01 -1.171955221340992e-02
-7.445229844177154e-01 -6.675958457472515e-01 -1.145606717423142e-03
-6.386364225797330e-01 -7.695051403305394e-01 -2.314899444429086e-03
-6.386364225797331e-01 -7.695051403305394e-01 -2.314899444429308e-03
-5.128371254800688e-01 -8.583908757787317e-01 -1.277447099343942e-02
-3.822293704702682e-01 -9.238438253679100e-01 -2.032965025497147e-02
-2.509917074010130e-01 -9.677354952717632e-01 -2.216244587224447e-02
-1.226111974066777e-01 -9.923261484305130e-01 -1.597840453750377e-02
1.052102849286030e-12 -9.999999999999999e-01 -4.356515148629114e-13
-8.146319596331011e-01 -5.315288379254379e-01 -2.320600456734569e-01
-7.792136923716854e-01 -6.065588172208264e-01 -1.578366968488523e-01
-7.268481485357764e-01 -6.793713738481214e-01 -1.007288705676272e-01
-6.596549471278674e-01 -7.490496721244359e-01 -6.148121192693989e-02
-5.791271397470963e-01 -8.142456391730077e-01 -4.019695381602539e-02
-4.862047836646149e-01 -8.730853091683531e-01 -3.642734214908083e-02
-4.862047836646151e-01 -8.730853091683535e-01 -3.642734214908150e-02
-4.023076046089521e-01 -9.152614914460629e-01 -2.109487022325007e-02
-3.109806361665927e-01 -9.503530965623773e-01 -1.095608432435791e-02
-2.129221566753248e-01 -9.770567577372886e-01 -4.924160499590657e-03
-1.089373963715601e-01 -9.940470839070389e-01 -1.743171735223870e-03
1.051936315832336e-12 -1.000000000000000e+00 -4.360956040727615e-13
        </DataArray>
        <DataArray type="Float64" Name="displacement" NumberOfComponents="3" format="ascii">
0.000000000000000e+00 0.000000000000000e+00 0.000000000000000e+00
-5.995303327774371e-03 1.225450961881835e-02 1.853999827925001e-03
-1.713697459427110e-02 4.641224897301927e-02 8.417971723765127e-03
-3.250557881405003e-02 9.869616078389432e-02 1.746192094643728e-02
-5.118168100167053e-02 1.653291877727350e-01 2.675585275486192e-02
-7.224584617169194e-02 2.425342726608327e-01 3.406977240795861e-02
-7.224584617169194e-02 2.425342726608327e-01 3.406977240795861e-02
-9.477957211213939e-02 3.289068421770239e-01 3.781145343527292e-02
-1.190728927402291e-01 4.255575671896139e-01 3.775525129464796e-02
-1.460191772643094e-01 5.324822566290979e-01 3.372104413744736e-02
-1.765117948927279e-01 6.496767194259705e-01 2.552871011502766e-02
-2.114441148338329e-01 7.771367645107266e-01 1.299812737875250e-02
3.485072157348088e-01 3.270495191184224e-01 1.441128677676673e-02
2.375749769856839e-01 2.847147115823208e-01 3.540515560143120e-03
1.524796409084108e-01 2.407961327877284e-01 -3.407420488034774e-03
8.948790756391645e-02 1.962041174229660e-01 -7.201390171983846e-03
4.486647701312618e-02 1.518490001763544e-01 -8.610262295928095e-03
1.488204931696691e-02 1.086411157362146e-01 -8.402905664087967e-03
1.488204931696691e-02 1.086411157362146e-01 -8.402905664087967e-03
-2.403954098857408e-03 7.027742479619559e-02 -6.715903453500260e-03
-8.878811404769593e-03 4.000138605597059e-02 -3.916800495753492e-03
-8.198871934466501e-03 1.804308121213349e-02 -1.120908076893912e-03
-4.020485021644482e-03 4.632591961278631e-03 5.564625170357829e-04
0.000000000000000e+00 0.000000000000000e+00 0.000000000000000e+00
0.000000000000000e+00 0.000000000000000e+00 0.000000000000000e+00
-6.084101828295552e-03 1.259441180979975e-02 1.881362782155449e-03
-1.741491723108590e-02 4.759554643757613e-02 8.490982376530454e-03
-3.303933543713655e-02 1.010144072096317e-01 1.757587385616866e-02
-5.200424567521289e-02 1.688619974522693e-01 2.688305229411014e-02
-7.335653717407986e-02 2.471493204917913e-01 3.415953276339678e-02
-7.335653717407986e-02 2.471493204917913e-01 3.415953276339678e-02
-9.624910223797833e-02 3.345518373074983e-01 3.780269450614426e-02
-1.210646622420455e-01 4.323856984521313e-01 3.759618935483289e-02
-1.486948500213956e-01 5.406229416121531e-01 3.336644126803989e-02
-1.800312984111392e-01 6.592356044740266e-01 2.493987420434074e-02
-2.159656402463890e-01 7.881957247242153e-01 1.214291212231977e-02
1.385458160277293e-01 9.210978856263477e-02 1.565460918088313e-02
8.515427217418359e-02 8.732721843975888e-02 7.838492394586893e-03
4.960134318798171e-02 7.868116395783187e-02 3.538456106591426e-03
2.696746944467199e-02 6.779483788543150e-02 1.128689912958336e-03
1.233309131980298e-02 5.629145299113525e-02 -1.016616590257868e-03
7.786491889227865e-04 4.579422204352102e-02 -4.523273806993799e-03
7.786491889227865e-04 4.579422204352102e-02 -4.523273806993799e-03
-8.278641772904938e-03 3.217631324642223e-02 -7.424891421727864e-03
-1.243917685368062e-02 1.445242643217537e-02 -7.372072449143730e-03
-1.214893137243478e-02 -1.041928187874408e-03 -5.416117288500999e-03
-7.853880648197725e-03 -7.971240402381508e-03 -2.608326339036182e-03
0.000000000000000e+00 0.000000000000000e+00 0.000000000000000e+00
3.423113887379534e-01 3.208499823602091e-01 1.426825509265583e-02
2.333744185138087e-01 2.806285004009056e-01 3.430405111821244e-03
1.500698328365855e-01 2.384863498478153e-01 -3.344786699713609e-03
8.848063945354467e-02 1.952388287693441e-01 -6.944529630970919e-03
4.468984611194649e-02 1.517012352338974e-01 -8.256032970955118e-03
1.478046055905158e-02 1.086888673098809e-01 -8.166506008706165e-03
1.478046055905158e-02 1.086888673098809e-01 -8.166506008706165e-03
-2.747341481812438e-03 7.021297211492872e-02 -6.680204960261449e-03
-9.264949094568931e-03 3.988721394720340e-02 -3.974109443472429e-03
-8.496701742798596e-03 1.793051664596568e-02 -1.194513850034440e-03
-4.166938890082045e-03 4.561804050477347e-03 5.122874283607359e-04
0.000000000000000e+00 0.000000000000000e+00 0.000000000000000e+00
        </DataArray>
  </PointData>
  <CellData>
        <DataArray type="Float64" Name="axial_strain_GPs" NumberOfComponents="3" format="ascii">
-1.407757246955432e-02 -1.244417506848849e-02 -7.864205157685378e-03
-7.864205157685489e-03 -1.311113319534263e-04 1.907179055329333e-03
4.424516498110931e-03 -6.376503308709758e-03 -1.520501809735619e-02
-1.520501809735608e-02 -1.529475723187534e-02 -1.518069030660518e-02
-1.415929485036482e-02 -1.216311244960644e-02 -7.556917111242067e-03
-7.556917111242178e-03 -2.099789772003202e-04 1.753789772726777e-03
2.941118844932200e-03 -6.000064445730202e-03 -7.623754729291110e-03
-7.623754729290777e-03 -1.124229093879137e-02 -2.332703317601936e-02
4.435790229169401e-03 -6.486981152903581e-03 -1.525999713807957e-02
-1.525999713807913e-02 -1.561311210068328e-02 -1.543575500286987e-02
        </DataArray>
        <DataArray type="Float64" Name="cross_section_radius" format="ascii">
1.000000000000000e-01
1.000000000000000e-01
1.000000000000000e-01
1.000000000000000e-01
1.000000000000000e-01
1.000000000000000e-01
1.000000000000000e-01
1.000000000000000e-01
1.000000000000000e-01
1.000000000000000e-01
        </DataArray>
        <DataArray type="Float64" Name="curvature_2_GPs" NumberOfComponents="3" format="ascii">
-1.347221820618606e-01 -4.761936574679126e-02 3.824973497267511e-02
5.738414772416846e-02 4.786446111618493e-02 3.920621263127937e-02
4.533930625356514e-01 3.219939482188288e-01 1.920786247292491e-01
2.539422413043639e-01 2.060752340175443e-01 1.638181843633126e-01
-1.361606475490227e-01 -4.787350001437227e-02 3.912611002303724e-02
5.688783219902512e-02 4.717964267834960e-02 3.833251953820964e-02
3.427214807789269e-01 1.799286661510267e-01 2.679375285876301e-02
-2.413246700065075e-02 6.347794561488945e-02 1.601216649844620e-01
4.505469223134273e-01 3.097102868550595e-01 1.709346156166988e-01
2.566866702548177e-01 2.070455517995126e-01 1.632089114981585e-01
        </DataArray>
        <DataArray type="Float64" Name="curvature_3_GPs" NumberOfComponents="3" format="ascii">
4.254863332292766e-01 2.986947511970861e-01 1.710329813997502e-01
1.879435476452554e-01 1.876659977911939e-01 1.872096360717291e-01
-1.379018397289728e-01 -1.147562145646628e-01 -7.716890382257310e-02
-5.804198690045482e-02 1.158714867754287e-02 8.453922466558451e-02
4.362956894364763e-01 3.022750267410074e-01 1.673789065398837e-01
1.914868043776043e-01 1.901959615625125e-01 1.887310511784921e-01
-1.401200568360624e-01 -5.216979281426343e-02 5.257375935027307e-02
-1.240006527096126e-01 -2.534042147987867e-02 6.494758548401189e-02
-1.427778412976644e-01 -1.137828875963339e-01 -6.937325393804168e-02
-6.194221091899166e-02 1.033758260240474e-02 8.607523256593405e-02
        </DataArray>
        <DataArray type="Float64" Name="element_owner" format="ascii">
1.000000000000000e+00
1.000000000000000e+00
1.000000000000000e+00
1.000000000000000e+00
1.000000000000000e+00
1.000000000000000e+00
1.000000000000000e+00
1.000000000000000e+00
1.000000000000000e+00
1.000000000000000e+00
        </DataArray>
        <DataArray type="Float64" Name="material_axial_force_GPs" NumberOfComponents="3" format="ascii">
-4.422599825072978e-03 -3.909452897514871e-03 -2.470612914970734e-03
-2.470612914970769e-03 -4.118983972672567e-05 5.991579709302955e-04
1.390002852615214e-03 -2.003237595023358e-03 -4.776797315235407e-03
-4.776797315235372e-03 -4.804989695809894e-03 -4.769154514365262e-03
-4.448273668191792e-03 -3.821154471647014e-03 -2.374075528046508e-03
-2.374075528046543e-03 -6.596684121808247e-05 5.509693065939356e-04
9.239797356573498e-04 -1.884975838377132e-03 -2.395073185031139e-03
-2.395073185031034e-03 -3.531869862282606e-03 -7.328403605582781e-03
1.393544599682397e-03 -2.037945233393734e-03 -4.794069490279205e-03
-4.794069490279066e-03 -4.905003827518050e-03 -4.849285451962787e-03
        </DataArray>
        <DataArray type="Float64" Name="material_bending_moment_2_GPs" NumberOfComponents="3" format="ascii">
-1.058105543602820e-04 -3.740016239968122e-05 3.004127159797818e-05
4.506940423068978e-05 3.759265985266023e-05 3.079248739437666e-05
3.560940786126451e-04 2.528934555561612e-04 1.508581990902600e-04
1.994457699294791e-04 1.618511103190787e-04 1.286625011300503e-04
-1.069403225120097e-04 -3.759975898669571e-05 3.072957495297994e-05
4.467959892877656e-05 3.705480470932365e-05 3.010629044370666e-05
2.691728215606232e-04 1.413156439375690e-04 2.104376428579760e-05
-1.895359526056063e-05 4.985546190217729e-05 1.257592615989380e-04
3.538587253093387e-04 2.432458904812607e-04 1.342517331664040e-04
2.016012393867403e-04 1.626131961229485e-04 1.281839793407504e-04
        </DataArray>
        <DataArray type="Float64" Name="material_bending_moment_3_GPs" NumberOfComponents="3" format="ascii">
3.341761846689886e-04 2.345943090066492e-04 1.343289894717537e-04
1.476105171429845e-04 1.473925299973533e-04 1.470341043410408e-04
-1.083078516522645e-04 -9.012932015752967e-05 -6.060831533364325e-05
-4.558606991155598e-05 9.100525290355343e-06 6.639695178739435e-05
3.426658331816321e-04 2.374062508433018e-04 1.314590857878978e-04
1.503933844730169e-04 1.493795588968090e-04 1.482290209716575e-04
-1.100500352941895e-04 -4.097405946114790e-05 4.129133403660390e-05
-9.738988489821458e-05 -1.990232049001396e-05 5.100971435624172e-05
-1.121374543290380e-04 -8.936487094421896e-05 -5.448562623184275e-05
-4.864929869255343e-05 8.119118389898098e-06 6.760332957129285e-05
        </DataArray>
        <DataArray type="Float64" Name="material_shear_force_2_GPs" NumberOfComponents="3" format="ascii">
2.907203039815547e-05 2.015391330704459e-04 -5.717425288079389e-05
-5.717425288077863e-05 2.767369040116509e-04 2.109299397953141e-03
-8.407250004046590e-04 -5.892462703778927e-04 -2.869587822008722e-04
-2.869587822008896e-04 -1.893610244052015e-04 -3.388898428301551e-04
4.067362385799517e-05 2.133359697859448e-04 -6.872211097319860e-05
-6.872211097319424e-05 3.020137877778349e-04 2.224367929211603e-03
3.750240731147768e-04 -2.416941541147514e-04 3.210053497872281e-04
3.210053497871932e-04 -1.708469963612509e-04 -5.822930007370617e-03
-7.263013931704898e-04 -5.840794139239918e-04 -2.606186219482210e-04
-2.606186219482296e-04 -1.923298018569820e-04 -4.201857420628883e-04
        </DataArray>
        <DataArray type="Float64" Name="material_shear_force_3_GPs" NumberOfComponents="3" format="ascii">
2.275524264569910e-04 1.879498716250937e-04 2.424370688041924e-04
2.424370688042360e-04 2.294896089658969e-04 5.243898995023935e-05
3.068289850723406e-03 -2.842395602684301e-04 9.425625385677477e-05
9.425625385676768e-05 -7.804496136427180e-05 1.180821149923844e-04
2.421732854743599e-04 1.916286759769295e-04 2.423352683494743e-04
2.423352683494045e-04 2.304537562869730e-04 6.045663792998071e-05
1.389842917814687e-03 -2.762621865646520e-04 -1.185025622101464e-04
-1.185025622101354e-04 1.744505016023230e-04 -1.240121401701324e-02
2.909775992443388e-03 -2.949033094917409e-04 1.346638231683136e-04
1.346638231682574e-04 -8.134922030587356e-05 6.038523632512703e-05
        </DataArray>
        <DataArray type="Float64" Name="material_torque_GPs" NumberOfComponents="3" format="ascii">
3.848115460669606e-05 3.599948356739546e-05 3.709681439553400e-05
3.050482332440864e-05 1.492634956417764e-05 -9.565736880865195e-07
-1.333314383364005e-06 -5.381543130632300e-05 -1.027981925255125e-04
-1.146401362926123e-04 -1.150742579518030e-04 -1.121473082275685e-04
3.848139426717757e-05 3.583814573147551e-05 3.682562434130004e-05
2.994512290568527e-05 1.450662836527462e-05 -1.238429585026351e-06
-9.672819828414621e-06 -2.461043117606261e-05 -3.276953674454741e-05
-3.626079422640855e-05 -4.305696780235635e-05 -4.323424429076527e-05
-2.151897210657523e-06 -5.468824744826316e-05 -1.032882130296287e-04
-1.149706860706424e-04 -1.156851032018937e-04 -1.129073618418151e-04
        </DataArray>
        <DataArray type="Float64" Name="shear_strain_2_GPs" NumberOfComponents="3" format="ascii">
1.850782937433714e-04 1.283037970184669e-03 -3.639825985425754e-04
-3.639825985424783e-04 1.761761848376064e-03 1.342821702580005e-02
-5.352221583813488e-03 -3.751258265164203e-03 -1.826836346035976e-03
-1.826836346036087e-03 -1.205509722521314e-03 -2.157439746002188e-03
2.589363316184151e-04 1.358138965229454e-03 -4.374985464437736e-04