<?xml version="1.0" ?> 
<!-- 
# vtk DataFile Version 3.0
-->
<VTKFile type="UnstructuredGrid" version="0.1" compressor="vtkZLibDataCompressor" byte_order="LittleEndian">
  <UnstructuredGrid>
    <FieldData>
      <DataArray type="Float64" Name="TIME" NumberOfTuples="1" format="ascii">
3.000000000000000e+00 
      </DataArray>
    </FieldData>

    <Piece NumberOfPoints="60" NumberOfCells="10" >
      <Points>
        <DataArray type="Float64" NumberOfComponents="3" format="ascii">
1.000000000000000e-01 3.000000000000000e-01 7.500000000000000e+00
2.990172929322414e-01 3.200461465493199e-01 7.612376374370098e+00
4.867080639921426e-01 3.757097920745568e-01 7.731781389874165e+00
6.648594205413531e-01 4.592901717922681e-01 7.854728301549199e+00
8.352584699415231e-01 5.630865209190110e-01 7.977730364432204e+00
9.996923195543015e-01 6.793980746713428e-01 8.097300833560181e+00
9.996923195543015e-01 6.793980746713428e-01 8.097300833560181e+00
1.158950316958524e+00 8.071408390812205e-01 8.210523044755295e+00
1.312299559647710e+00 9.494918826947187e-01 8.316854379019439e+00
1.459243779855536e+00 1.105142034499570e+00 8.416369159159220e+00
1.599286709815681e+00 1.272782123483509e+00 8.509141707981239e+00
1.731932081761819e+00 1.451102978634268e+00 8.595246348292104e+00
1.415274592332378e+00 3.812358464912974e-01 9.979321834392486e+00
1.265188784046331e+00 4.818144518250927e-01 1.011087298515556e+01
1.125265576849835e+00 5.802087822160935e-01 1.025182235833040e+01
9.912270010164214e-01 6.729956751812554e-01 1.039991317424448e+01
8.587950868196196e-01 7.567519682375342e-01 1.055288865322528e+01
7.236918645329601e-01 8.280544989018856e-01 1.070849201560029e+01
7.236918645329601e-01 8.280544989018856e-01 1.070849201560029e+01
5.847889631476786e-01 8.869258542097569e-01 1.086601069646206e+01
4.434733252852888e-01 9.348248705001144e-01 1.102531032454296e+01
2.992399516622437e-01 9.704827592463474e-01 1.118500141063294e+01
1.515838429949963e-01 9.926307319218461e-01 1.134369446552197e+01
0.000000000000000e+00 1.000000000000000e+00 1.150000000000000e+01
1.000000000000000e-01 3.000000000000000e-01 1.250000000000000e+01
2.987332598817195e-01 3.206028352232062e-01 1.261238986224791e+01
4.857913952065642e-01 3.777041938535205e-01 1.273183407445633e+01
6.631171038638467e-01 4.631838903823708e-01 1.285479726092891e+01
8.326530837428798e-01 5.689217393011849e-01 1.297774404596929e+01
9.963420327329761e-01 6.867975551013907e-01 1.309713905388114e+01
9.963420327329761e-01 6.867975551013907e-01 1.309713905388114e+01
1.154765984503516e+00 8.158893021030795e-01 1.321007574115503e+01
1.306947261374396e+00 9.597541537063184e-01 1.331605386478171e+01
1.452488994210703e+00 1.116990738022500e+00 1.341514749981505e+01
1.590994313877523e+00 1.286197683163016e+00 1.350743072130895e+01
1.722066351239942e+00 1.465973617239260e+00 1.359297760431728e+01
1.238437546551160e+00 1.680522068071128e-01 1.496133334573164e+01
1.135183814064629e+00 3.062090235766424e-01 1.510297930570834e+01
1.037209474050545e+00 4.390115984401706e-01 1.525138827440261e+01
9.380638132198796e-01 5.636312804405299e-01 1.540382935732375e+01
8.312961182836056e-01 6.772394186205530e-01 1.555757165998107e+01
7.104556759526962e-01 7.770073620230724e-01 1.570988428788387e+01
7.104556759526962e-01 7.770073620230724e-01 1.570988428788387e+01
5.768756259198811e-01 8.564463409357362e-01 1.586312993140870e+01
4.373297633655524e-01 9.139580494465391e-01 1.602040085610870e+01
2.935283582323620e-01 9.540495322987028e-01 1.618006053025791e+01
1.471816804629607e-01 9.812278342354492e-01 1.634047242213033e+01
0.000000000000000e+00 1.000000000000000e+00 1.650000000000000e+01
1.409121845881385e+00 3.748827398745895e-01 1.997838927443924e+01
1.260733941755126e+00 4.773471786509898e-01 2.011023393854866e+01
1.122706641792064e+00 5.775433452959210e-01 2.025165940720850e+01
9.903524620348721e-01 6.718155390407378e-01 2.040021545690920e+01
8.589839185262240e-01 7.565080591167949e-01 2.055345186414122e+01
7.239135273087933e-01 8.279652047554467e-01 2.070891840539499e+01
7.239135273087933e-01 8.279652047554467e-01 2.070891840539499e+01
5.845775520624873e-01 8.866321380511267e-01 2.086612948966925e+01
4.431296321465621e-01 9.345023266558239e-01 2.102527708148830e+01
2.989583471229108e-01 9.702425281371365e-01 2.118492729063072e+01
1.514522765534257e-01 9.925195000626624e-01 2.134364622687509e+01
0.000000000000000e+00 1.000000000000000e+00 2.150000000000000e+01
        </DataArray>
      </Points>

      <Cells>
        <DataArray type="Int32" Name="connectivity" format="ascii">
0 1 2 3 4 5 6 7 8 9 10 11 12 13 14 15 16 17 18 19 20 21 22 23 24 25 26 27 28 29 30 31 32 33 34 35 36 37 38 39 40 41 42 43 44 45 46 47 48 49 50 51 52 53 54 55 56 57 58 59 
        </DataArray>
        <DataArray type="Int32" Name="offsets" format="ascii">
6 12 18 24 30 36 42 48 54 60 
        </DataArray>
        <DataArray type="UInt8" Name="types" format="ascii">
4 4 4 4 4 4 4 4 4 4 
        </DataArray>
      </Cells>

  <PointData>
        <DataArray type="Float64" Name="base_vector_1" NumberOfComponents="3" format="ascii">
8.858315352803766e-01 9.648749949033417e-17 4.640069946701352e-01
8.446199868863109e-01 1.693351397907463e-01 5.078805845710351e-01
7.935484433400386e-01 3.042563412219690e-01 5.269809739438628e-01
7.460287818394623e-01 4.052300194171772e-01 5.284218845111186e-01
7.114089342114583e-01 4.748118313183904e-01 5.181226236753164e-01
6.955037554215007e-01 5.158110528641084e-01 5.002134383818665e-01
6.955037554215009e-01 5.158110528641082e-01 5.002134383818665e-01
6.679015914064215e-01 5.782163854825235e-01 4.685864656136530e-01
6.380883163198560e-01 6.338190583565856e-01 4.371689625763275e-01
6.068622480469179e-01 6.829465421899303e-01 4.065737724033101e-01
5.749380308637300e-01 7.259965986430615e-01 3.773263831555410e-01
5.429463044617808e-01 7.634130372248848e-01 3.498711835324140e-01
-6.831653931507264e-01 4.551547798212522e-01 5.710684477425468e-01
-6.420935528333027e-01 4.502664384118920e-01 6.204643453493343e-01
-6.165298524232745e-01 4.341742334379993e-01 6.567980481772632e-01
-6.073900403010644e-01 4.046355868670580e-01 6.836281012245071e-01
-6.137749822078615e-01 3.589982957634557e-01 7.031361851410262e-01
-6.330857283039184e-01 2.943207464266314e-01 7.159453602341239e-01
-6.330857283039175e-01 2.943207464266314e-01 7.159453602341236e-01
-6.419285380155504e-01 2.448699517758573e-01 7.266130048371744e-01
-6.546144173622972e-01 1.917206366295620e-01 7.312476749171755e-01
-6.704952149104750e-01 1.338181018463606e-01 7.297457655926433e-01
-6.884966896336431e-01 7.018473770496003e-02 7.218354458994108e-01
-7.071067811881107e-01 -1.052047338134798e-12 7.071067811849854e-01
8.858315352803766e-01 6.329881907156372e-17 4.640069946701351e-01
8.433304711156197e-01 1.740424256182907e-01 5.084318544041165e-01
7.905259938241286e-01 3.116421542786486e-01 5.272075689564184e-01
7.418135470168611e-01 4.134180768169657e-01 5.280134043972982e-01
7.071069549965745e-01 4.822226728147938e-01 5.171663639669819e-01
6.924504656864903e-01 5.210839985561372e-01 4.989827842915127e-01
6.924504656864903e-01 5.210839985561373e-01 4.989827842915128e-01
6.634832971422285e-01 5.844016319597722e-01 4.671880210108480e-01
6.325745078627221e-01 6.404477675934129e-01 4.355182533337136e-01
6.005929228818546e-01 6.896076753261164e-01 4.046348911247526e-01
5.683085084114138e-01 7.323409632228152e-01 3.751028563648555e-01
5.363935934520244e-01 7.691532833573035e-01 3.473976678164436e-01
-4.688935500326736e-01 6.289848487908815e-01 6.200942660025721e-01
-4.422161660577943e-01 6.089509643628729e-01 6.585010140301023e-01
-4.417464179665780e-01 5.822716598031512e-01 6.825099386849847e-01
-4.681438583842512e-01 5.452686351900840e-01 6.953584998653924e-01
-5.196964841329570e-01 4.926859312034932e-01 6.979800409567525e-01
-5.919782658103780e-01 4.181430471408478e-01 6.889979135932882e-01
-5.919782658103780e-01 4.181430471408477e-01 6.889979135932881e-01
-6.238977542812654e-01 3.187336724091027e-01 7.135547899603792e-01
-6.484127428536275e-01 2.266780435604147e-01 7.267585427586378e-01
-6.687641140895928e-01 1.429176622807243e-01 7.296088688565783e-01
-6.876437371192798e-01 6.754134124701400e-02 7.228998948839217e-01
-7.071067811881098e-01 -1.051880804681105e-12 7.071067811849854e-01
-6.767591128403529e-01 4.635375721858022e-01 5.719528148017367e-01
-6.339836168935928e-01 4.585584901733110e-01 6.227269743639597e-01
-6.084626788894090e-01 4.416940849328689e-01 6.593022855519608e-01
-6.012336972000316e-01 4.105360707001391e-01 6.855495430713021e-01
-6.112611636948664e-01 3.621299693886321e-01 7.037198839232743e-01
-6.355461315338733e-01 2.931358156479407e-01 7.142496120242171e-01
-6.355461315338742e-01 2.931358156479408e-01 7.142496120242173e-01
-6.430052388647776e-01 2.444827453493385e-01 7.257909134309282e-01
-6.547978281925324e-01 1.919270091313654e-01 7.310292930931240e-01
-6.702490114775475e-01 1.343356525838922e-01 7.298768355402376e-01
-6.882224713909617e-01 7.065546073943263e-02 7.220509924792127e-01
-7.071067811881095e-01 -1.051936315832336e-12 7.071067811849852e-01
        </DataArray>
        <DataArray type="Float64" Name="base_vector_2" NumberOfComponents="3" format="ascii">
-7.659315766068742e-17 1.000000000000000e+00 -6.172076149014737e-17
-1.479113839186794e-01 9.855440417923947e-01 -8.261455195527888e-02
-2.621501935239827e-01 9.524717620798657e-01 -1.551606215372126e-01
-3.455424155113930e-01 9.139079871992634e-01 -2.130085209937452e-01
-4.021020334812661e-01 8.796535280021314e-01 -2.540150100754565e-01
-4.354227722396588e-01 8.563459063171821e-01 -2.776305065170873e-01
-4.354227722396586e-01 8.563459063171821e-01 -2.776305065170872e-01
-4.860893652279900e-01 8.156786928341200e-01 -3.136644689292541e-01
-5.316713554562044e-01 7.733862536090619e-01 -3.452524764804769e-01
-5.722952914876633e-01 7.304396350088092e-01 -3.727412493261890e-01
-6.081586446249435e-01 6.876966363129919e-01 -3.965052324645265e-01
-6.395112568461123e-01 6.459052912758252e-01 -4.169312977805784e-01
-1.455370232146190e-01 6.814567060715435e-01 -7.172417532631168e-01
-2.545230665496399e-01 6.382295787805210e-01 -7.265542053858106e-01
-3.556979219387599e-01 5.906251647245734e-01 -7.243209945338591e-01
-4.469793103091299e-01 5.373356777783018e-01 -7.151782054440055e-01
-5.266683304391997e-01 4.772964886777031e-01 -7.034262801518875e-01
-5.931005457181180e-01 4.099088489241088e-01 -6.929693198422159e-01
-5.931005457181178e-01 4.099088489241091e-01 -6.929693198422155e-01
-6.461244864290128e-01 3.374965616620289e-01 -6.845576812096648e-01
-6.850056938076245e-01 2.587216355130251e-01 -6.810508899991248e-01
-7.088032813790767e-01 1.750231626374330e-01 -6.833482280994401e-01
-7.165129570093624e-01 8.810916900232590e-02 -6.919869628652114e-01
-7.071067811849854e-01 -4.358735594678365e-13 -7.071067811881101e-01
-5.335164815674035e-17 1.000000000000000e+00 -3.456466574720843e-17
-1.519776352367749e-01 9.847222989177491e-01 -8.499877882641071e-02
-2.683836878475369e-01 9.500704425097556e-01 -1.591739625902211e-01
-3.523253390463574e-01 9.102101658596906e-01 -2.176793730042970e-01
-4.081608836080155e-01 8.755882567665106e-01 -2.583600156852974e-01
-4.397007762349198e-01 8.531391189923090e-01 -2.807434256103529e-01
-4.397007762349198e-01 8.531391189923090e-01 -2.807434256103529e-01
-4.910749348778039e-01 8.112455414425470e-01 -3.173737226431159e-01
-5.369555556327447e-01 7.678935723875062e-01 -3.493110258223812e-01
-5.775307482596714e-01 7.241462461570178e-01 -3.769223381431829e-01
-6.130611764277430e-01 6.809342499701150e-01 -4.006052186063840e-01
-6.438581489470393e-01 6.390611329791760e-01 -4.207701894738553e-01
-9.749821112996293e-02 6.609070416758049e-01 -7.441075064060253e-01
-2.122057504389550e-01 6.423086606412434e-01 -7.364837431647031e-01
-3.164688768376809e-01 6.107206441099401e-01 -7.258565594186202e-01
-4.085962914489353e-01 5.641625667679429e-01 -7.174745074718565e-01
-4.859571445144501e-01 5.014685314690732e-01 -7.158037200529296e-01
-5.445733278130184e-01 4.226876158871009e-01 -7.244136042416193e-01
-5.445733278130184e-01 4.226876158871009e-01 -7.244136042416193e-01
-6.193263552853534e-01 3.552210327777425e-01 -7.001806077872154e-01
-6.731401057234017e-01 2.751882509986869e-01 -6.864064572678287e-01
-7.056664068430902e-01 1.869443426943632e-01 -6.834374404345542e-01
-7.169231621904861e-01 9.419550188376813e-02 -6.907592829196427e-01
-7.071067811849854e-01 -4.360956040727615e-13 -7.071067811881097e-01
-1.444432411433973e-01 6.781916336767001e-01 -7.205499691894511e-01
-2.546515520175863e-01 6.365432562283848e-01 -7.279871358789243e-01
-3.564215838767743e-01 5.901830000497090e-01 -7.243256732983421e-01
-4.476871095615077e-01 5.375799665626397e-01 -7.145516296832396e-01
-5.267040449926302e-01 4.775336252451525e-01 -7.032385695826301e-01
-5.916502091164748e-01 4.094299965751941e-01 -6.944905384214158e-01
-5.916502091164750e-01 4.094299965751939e-01 -6.944905384214161e-01
-6.454222763528337e-01 3.371713491240340e-01 -6.853798702306665e-01
-6.848391477388734e-01 2.585165434822847e-01 -6.812962193277354e-01
-7.089526938668654e-01 1.748993004885232e-01 -6.832249355428563e-01
-7.167324717493485e-01 8.804099420125910e-02 -6.917682757109662e-01
-7.071067811849852e-01 -4.356515148629114e-13 -7.071067811881097e-01
        </DataArray>
        <DataArray type="Float64" Name="base_vector_3" NumberOfComponents="3" format="ascii">
-4.640069946701352e-01 1.913443601105979e-17 8.858315352803766e-01
-5.145282307701192e-01 -5.343418340243586e-03 8.574567905270867e-01
-5.491430998455137e-01 -1.502069461431263e-02 8.355933428560591e-01
-5.692464279639176e-01 -2.368168694466508e-02 8.218258221507615e-01
-5.763777259699995e-01 -2.762961298100011e-02 8.167161817254341e-01
-5.715606141169279e-01 -2.471126214955630e-02 8.201876723733759e-01
-5.715606141169277e-01 -2.471126214955630e-02 8.201876723733760e-01
-5.635819312300735e-01 -1.827789965906912e-02 8.258579328038411e-01
-5.569280656992012e-01 -1.212864347365070e-02 8.304721703007484e-01
-5.515399452773039e-01 -6.477663082883500e-03 8.341233293970942e-01
-5.473475346016354e-01 -1.508364180785565e-03 8.369040573464857e-01
-5.442744370613057e-01 2.624747029368518e-03 8.389031218589132e-01
-7.156144356251081e-01 -5.731063462883565e-01 -3.993057667614748e-01
-7.231416721528884e-01 -6.244382589251790e-01 -2.951999030935080e-01
-7.024029679602618e-01 -6.801872167371250e-01 -2.097031730518633e-01
-6.567243219941286e-01 -7.399597362203467e-01 -1.455086034365956e-01
-5.881332679998020e-01 -8.020650132843784e-01 -1.038796107857753e-01
-4.974275859728423e-01 -8.633365704037929e-01 -8.494564683754202e-02
-4.974275859728422e-01 -8.633365704037925e-01 -8.494564683754136e-02
-4.128569971770648e-01 -9.089195660692964e-01 -5.843220257990844e-02
-3.197611046274305e-01 -9.467345524527033e-01 -3.803318497870678e-02
-2.191667745996402e-01 -9.754279102827783e-01 -2.250148335027702e-02
-1.121672447785673e-01 -9.936351830178950e-01 -1.037459723456546e-02
1.051936315832336e-12 -1.000000000000000e+00 -4.363176486776865e-13
-4.640069946701351e-01 5.862933003395147e-18 8.858315352803766e-01
-5.154575781533771e-01 -5.588210719456560e-03 8.568968765407015e-01
-5.504896449396024e-01 -1.566275665009897e-02 8.346950514220089e-01
-5.705957561427639e-01 -2.455499392457555e-02 8.208638957496130e-01
-5.774118523963605e-01 -2.839891610500993e-02 8.159589783048313e-01
-5.719926397681807e-01 -2.500220177853027e-02 8.198776188903159e-01
-5.719926397681808e-01 -2.500220177853016e-02 8.198776188903159e-01
-5.644779205142024e-01 -1.885216306803450e-02 8.252328599853609e-01
-5.581471340761013e-01 -1.288869545639124e-02 8.296418855458463e-01
-5.529433748575480e-01 -7.312202678372015e-03 8.331867473100708e-01
-5.487999938267363e-01 -2.293644156422581e-03 8.359505403863663e-01
-5.456451199617904e-01 2.023614600556667e-03 8.380139068331932e-01
-8.778570143048432e-01 -4.093652919518799e-01 -2.485701514279992e-01
-8.714433899902999e-01 -4.654227191132588e-01 -1.548163769613389e-01
-8.394686129968141e-01 -5.366376888069113e-01 -8.551279872149209e-02
-7.835115815808230e-01 -6.200021884927096e-01 -4.131449858061664e-02
-7.026814485065085e-01 -7.111890642722213e-01 -2.118718443770207e-02
-5.941393973158087e-01 -8.040469958301227e-01 -2.251233114900186e-02
-5.941393973158086e-01 -8.040469958301227e-01 -2.251233114900186e-02
-4.766408059028878e-01 -8.787643961523025e-01 -2.422144098366008e-02
-3.555886851008108e-01 -9.342850159774087e-01 -2.584948642371998e-02
-2.340715317143992e-01 -9.719189032747462e-01 -2.416947451000429e-02
-1.147487268575326e-01 -9.932599733440481e-01 -1.635099498978443e-02
1.052102849286030e-12 -9.999999999999999e-01 -4.354294702579864e-13
-7.218955972130096e-01 -5.702534762568491e-01 -3.920174990245342e-01
-7.302173378971174e-01 -6.201103079615258e-01 -2.867853646794216e-01
-7.090393662875816e-01 -6.757147044334915e-01 -2.016750239044585e-01
-6.618869188038417e-01 -7.365242115535656e-01 -1.394194839746410e-01
-5.907136690028423e-01 -8.005145358023243e-01 -1.011624397807303e-01
-4.960152666448482e-01 -8.639667073960969e-01 -8.677778382965906e-02
-4.960152666448484e-01 -8.639667073960972e-01 -8.677778382965950e-02
-4.122794537446378e-01 -9.091444706735720e-01 -5.900833384949866e-02
-3.197423117428116e-01 -9.467487628256301e-01 -3.783694186244557e-02
-2.194364155565018e-01 -9.753789864116846e-01 -2.198846047883363e-02
-1.124472934871570e-01 -9.936078649083615e-01 -9.950727594545627e-03
1.051936315832336e-12 -9.999999999999999e-01 -4.356515148629114e-13
        </DataArray>
        <DataArray type="Float64" Name="displacement" NumberOfComponents="3" format="ascii">
0.000000000000000e+00 0.000000000000000e+00 0.000000000000000e+00
-1.098270706778381e-02 2.004614654931991e-02 2.376374370146372e-03
-3.329193600787000e-02 7.570979207455680e-02 1.178138987418809e-02
-6.514057945863427e-02 1.592901717922681e-01 2.472830154917460e-02
-1.047415300584518e-01 2.630865209190110e-01 3.773036443215538e-02
-1.503076804456984e-01 3.793980746713428e-01 4.730083356018078e-02
-1.503076804456984e-01 3.793980746713428e-01 4.730083356018078e-02
-2.010496830415016e-01 5.071408390812204e-01 5.052304475534264e-02
-2.577004403523029e-01 6.494918826947187e-01 4.685437901946266e-02
-3.207562201444509e-01 8.051420344995703e-01 3.636915915919658e-02
-3.907132901842942e-01 9.727821234835090e-01 1.914170798119130e-02
-4.680679182381811e-01 1.151102978634268e+00 -4.753651707895656e-03
4.152745923323784e-01 3.812358464912974e-01 5.011816118248547e-02
2.778871574289787e-01 3.255578734430861e-01 2.462790706922569e-02
1.750764257513059e-01 2.715547655320369e-01 8.478533665044807e-03
1.010904606266911e-01 2.193618312674523e-01 -5.485109007246081e-04
5.017732538246522e-02 1.691143791586344e-01 -4.671778498757106e-03
1.658508334596009e-02 1.209477177148857e-01 -6.109820999714799e-03
1.658508334596009e-02 1.209477177148857e-01 -6.109820999714799e-03
-2.848625930096160e-03 7.830809277316131e-02 -5.632545015433976e-03
-1.016051862761130e-02 4.468833011119433e-02 -3.431663515709005e-03
-9.414065021694340e-03 2.029360814860059e-02 -8.584379081462146e-04
-4.672735387454274e-03 5.329105304997195e-03 7.358703996267479e-04
0.000000000000000e+00 0.000000000000000e+00 0.000000000000000e+00
0.000000000000000e+00 0.000000000000000e+00 0.000000000000000e+00
-1.126674011830575e-02 2.060283522320622e-02 2.389862247962782e-03
-3.420860479344834e-02 7.770419385352051e-02 1.183407445635609e-02
-6.688289613614062e-02 1.631838903823709e-01 2.479726092888335e-02
-1.073469162570950e-01 2.689217393011850e-01 3.774404596924441e-02
-1.536579672670239e-01 3.867975551013907e-01 4.713905388113915e-02
-1.536579672670239e-01 3.867975551013907e-01 4.713905388113915e-02
-2.052340154965091e-01 5.158893021030795e-01 5.007574115508007e-02
-2.630527386256158e-01 6.597541537063185e-01 4.605386478173124e-02
-3.275110057892847e-01 8.169907380224999e-01 3.514749981502696e-02
-3.990056861224520e-01 9.861976831630164e-01 1.743072130889978e-02
-4.779336487600583e-01 1.165973617239260e+00 -7.022395682717786e-03
2.384375465511597e-01 1.680522068071128e-01 3.212967253164045e-02
1.478821874471622e-01 1.499524451940981e-01 1.673422763048293e-02
8.702032295166973e-02 1.303575817557256e-01 8.044449743493942e-03
4.792727282962983e-02 1.099974365267565e-01 3.367672182312376e-03
2.267835684598940e-02 8.960182954195184e-02 1.122825855937037e-05
3.348894765696220e-03 6.990058083607242e-02 -4.717548716127951e-03
3.348894765696220e-03 6.990058083607242e-02 -4.717548716127951e-03
-1.076196315789368e-02 4.782857949914066e-02 -8.513310068796187e-03
-1.630408054734767e-02 2.382150905761904e-02 -8.341131949961778e-03
-1.512565845157610e-02 3.860381200955998e-03 -5.799318283184363e-03
-9.074897919489927e-03 -6.073792381399712e-03 -2.486172992014701e-03
0.000000000000000e+00 0.000000000000000e+00 0.000000000000000e+00
4.091218458813854e-01 3.748827398745895e-01 4.918560123924465e-02
2.734323151376591e-01 3.210906002684455e-01 2.398886047079429e-02
1.725174906931888e-01 2.688893286114761e-01 8.315582549379030e-03
1.002159216446225e-01 2.181816951269644e-01 -2.462282322426290e-04
5.036615708860792e-02 1.688704700381936e-01 -4.108567581294409e-03
1.680674612179334e-02 1.208584235684467e-01 -5.683431205007139e-03
1.680674612179334e-02 1.208584235684467e-01 -5.683431205007139e-03
-3.060037015287453e-03 7.801437661453114e-02 -5.513751808244649e-03
-1.050421176633798e-02 4.436578626690380e-02 -3.464906570364690e-03
-9.695669561027298e-03 2.005337703938970e-02 -9.325579103709458e-04
-4.804301829024915e-03 5.217873445813481e-03 6.876317527471087e-04
0.000000000000000e+00 0.000000000000000e+00 0.000000000000000e+00
        </DataArray>
  </PointData>
  <CellData>
        <DataArray type="Float64" Name="axial_strain_GPs" NumberOfComponents="3" format="ascii">
-2.215315959582520e-02 -2.065850030071170e-02 -1.725907980498875e-02
-1.725907980498853e-02 -4.054483055915714e-03 7.170392999898967e-03
1.223088717311205e-02 -8.642259291021137e-03 -1.859340214678906e-02
-1.859340214678973e-02 -1.809544661638107e-02 -1.794690669640353e-02
-2.239988143900251e-02 -2.034883246646269e-02 -1.694798770418593e-02
-1.694798770418582e-02 -4.030866045685477e-03 7.230431542654903e-03
8.067954199117100e-03 -7.666183238030255e-03 -1.263576693632562e-02
-1.263576693632573e-02 -1.590690394484495e-02 -2.685025856524192e-02
1.177077896115808e-02 -8.970208839858884e-03 -1.852939554633259e-02
-1.852939554633204e-02 -1.835936332250321e-02 -1.808142880491981e-02
        </DataArray>
        <DataArray type="Float64" Name="cross_section_radius" format="ascii">
1.000000000000000e-01
1.000000000000000e-01
1.000000000000000e-01
1.000000000000000e-01
1.000000000000000e-01
1.000000000000000e-01
1.000000000000000e-01
1.000000000000000e-01
1.000000000000000e-01
1.000000000000000e-01
        </DataArray>
        <DataArray type="Float64" Name="curvature_2_GPs" NumberOfComponents="3" format="ascii">
-2.414506919429373e-01 -1.091072984584394e-01 2.350357880216068e-02
4.900623745054242e-02 3.636551229196539e-02 2.372225092964164e-02
6.903232089323973e-01 4.549354715518112e-01 2.229961647952239e-01
2.861532253299338e-01 2.297366645480008e-01 1.811491227631859e-01
-2.459935889790174e-01 -1.095895488718553e-01 2.710477534977021e-02
4.642985872000754e-02 3.548532029025758e-02 2.453870167420693e-02
5.920371256560887e-01 3.108467361939730e-01 4.136735277853781e-02
4.986293930473179e-02 1.132681767399802e-01 1.885010975552829e-01
6.967759709726387e-01 4.433679662626122e-01 1.942096080632077e-01
2.923364595861856e-01 2.316640279104070e-01 1.790947679939207e-01
        </DataArray>
        <DataArray type="Float64" Name="curvature_3_GPs" NumberOfComponents="3" format="ascii">
7.099574432950060e-01 4.582161603898458e-01 2.066163294951333e-01
3.122383868341583e-01 2.750567933435775e-01 2.378760636716982e-01
-2.112452479459250e-01 -1.779911331320365e-01 -1.225252464988753e-01
-8.888739117109283e-02 -1.949718030118231e-03 8.942959923008115e-02
7.296683334684674e-01 4.634417201645751e-01 1.973647279281146e-01
3.182178302148294e-01 2.773842741121663e-01 2.365512764398321e-01
-2.020095311093217e-01 -9.576859457624799e-02 3.796577787582830e-02
-1.656195450547212e-01 -3.303181761095027e-02 9.378243452326522e-02
-2.176684290350513e-01 -1.766749207169505e-01 -1.117781612008181e-01
-9.402689513731061e-02 -4.015578617956744e-03 9.080501216425331e-02
        </DataArray>
        <DataArray type="Float64" Name="element_owner" format="ascii">
1.000000000000000e+00
1.000000000000000e+00
1.000000000000000e+00
1.000000000000000e+00
1.000000000000000e+00
1.000000000000000e+00
1.000000000000000e+00
1.000000000000000e+00
1.000000000000000e+00
1.000000000000000e+00
        </DataArray>
        <DataArray type="Float64" Name="material_axial_force_GPs" NumberOfComponents="3" format="ascii">
-6.959620344004668e-03 -6.490059277889842e-03 -5.422099832307263e-03
-5.422099832307192e-03 -1.273753418256910e-03 2.252645397183427e-03
3.842446528993444e-03 -2.715045829909014e-03 -5.841289558959320e-03
-5.841289558959530e-03 -5.684852215344906e-03 -5.638187023208279e-03
-7.037130297005265e-03 -6.392774258576864e-03 -5.324367366460066e-03
-5.324367366460031e-03 -1.266333915673003e-03 2.271507061668856e-03
2.534622564144520e-03 -2.408402494166906e-03 -3.969643257963337e-03
-3.969643257963373e-03 -4.997301257448340e-03 -8.435257505555046e-03
3.697899271140352e-03 -2.818074219246689e-03 -5.821181292381791e-03
-5.821181292381616e-03 -5.767764093856198e-03 -5.680448389994294e-03
        </DataArray>
        <DataArray type="Float64" Name="material_bending_moment_2_GPs" NumberOfComponents="3" format="ascii">
-1.896349300030260e-04 -8.569267182251554e-05 1.845966762448420e-05
3.848940888867527e-05 2.856140656511695e-05 1.863141231179396e-05
5.421785804461379e-04 3.573054838211447e-04 1.751407782748436e-04
2.247442176243862e-04 1.804347544010555e-04 1.422741883192651e-04
-1.932029129916671e-04 -8.607143041151011e-05 2.128804077900996e-05
3.646592576549693e-05 2.787010538353851e-05 1.927265122708001e-05
4.649848711533964e-04 2.441384557048376e-04 3.248984289687793e-05
3.916226095153479e-05 8.896061798295802e-05 1.480484158183225e-04
5.472465679013843e-04 3.482203864119175e-04 1.525318694869816e-04
2.296005184531026e-04 1.819485020460889e-04 1.406607018565175e-04
        </DataArray>
        <DataArray type="Float64" Name="material_bending_moment_3_GPs" NumberOfComponents="3" format="ascii">
5.575992720542459e-04 3.598821308092155e-04 1.622760857133997e-04
2.452314555617299e-04 2.160291003220373e-04 1.868274235239663e-04
-1.659116297631681e-04 -1.397939090629322e-04 -9.623110357003632e-05
-6.981199377496689e-05 -1.531304959997750e-06 7.023784298867561e-05
5.730801689954112e-04 3.639862758590115e-04 1.550098948341783e-04
2.499276994110481e-04 2.178570994430298e-04 1.857869380651662e-04
-1.586579147220410e-04 -7.521647829134001e-05 2.981825221563102e-05
-1.300772865086990e-04 -2.594312888531983e-05 7.365655183351397e-05
-1.709563843937371e-04 -1.387601582494827e-04 -8.779036251506644e-05
-7.384855075080823e-05 -3.153828071521291e-06 7.131808978108751e-05
        </DataArray>
        <DataArray type="Float64" Name="material_shear_force_2_GPs" NumberOfComponents="3" format="ascii">
-2.183431002870575e-04 4.218502346526722e-04 -1.278074564863162e-04
-1.278074564862987e-04 6.335366801446348e-05 9.732751773207609e-04
6.032536018129818e-04 -2.345546294398223e-04 -1.715608572625954e-04
-1.715608572625954e-04 -2.035553959847965e-04 -4.665205063862394e-04
-2.340006468861740e-04 4.462591138425015e-04 -1.526832238370026e-04
-1.526832238370026e-04 6.957821129032415e-05 9.700669377971079e-04
5.537949964061679e-04 -3.183951031006781e-04 3.511047588124334e-04
3.511047588124247e-04 -2.419412428017537e-04 -5.758328774014473e-03
6.228557411043250e-04 -2.450877675636383e-04 -1.379204264333791e-04
-1.379204264333617e-04 -2.099918890833674e-04 -5.322907781059971e-04
        </DataArray>
        <DataArray type="Float64" Name="material_shear_force_3_GPs" NumberOfComponents="3" format="ascii">
1.022162332147082e-04 2.220576071830298e-04 8.257683945631852e-05
8.257683945632724e-05 -2.154092542505610e-05 -1.020470801094675e-04
2.896158641675446e-03 -3.478278763662827e-04 8.148068780810634e-05
8.148068780818046e-05 -9.249745108690663e-05 3.134169181766882e-04
1.108650548779102e-04 2.289525604424197e-04 7.210770104612936e-05
7.210770104612936e-05 -1.865081175891022e-05 -1.043758324715628e-04
2.432411026055349e-03 -4.548999290026438e-04 -2.408229620216316e-05
-2.408229620218142e-05 1.364229872512190e-04 -1.136999312065926e-02
2.913553220998738e-03 -3.796981069285095e-04 1.463192072357419e-04
1.463192072356950e-04 -9.897132899335931e-05 2.562087636060633e-04
        </DataArray>
        <DataArray type="Float64" Name="material_torque_GPs" NumberOfComponents="3" format="ascii">
1.320939335879344e-06 -1.659738603919660e-06 1.348271451961746e-06
-8.537751102571841e-08 1.061074474748719e-07 -8.552136020723059e-08
-1.250958886381191e-05 -4.443062758965884e-05 -6.874916278918094e-05
-8.217570785896181e-05 -8.465607793107943e-05 -8.312408709109008e-05
1.353947319106993e-06 -1.703663282582187e-06 1.383840192580781e-06
-6.375752323194028e-08 7.924554825010611e-08 -6.387529285072169e-08
-1.431521348523558e-05 -3.403420248737254e-05 -4.500771703363514e-05
-5.151651528997569e-05 -6.052048798858932e-05 -6.141993756526914e-05
-1.315961923472856e-05 -4.515631944080009e-05 -6.885851093164900e-05
-8.176302141940788e-05 -8.466534312037191e-05 -8.341056368516116e-05
        </DataArray>
        <DataArray type="Float64" Name="shear_strain_2_GPs" NumberOfComponents="3" format="ascii">
-1.390015348027785e-03 2.685582003577949e-03 -8.136475385519815e-04
-8.136475385518704e-04 4.033219771001906e-04 6.196062218369602e-03
3.840431706661041e-03 -1.493221148017421e-03 -1.092190338977006e-03
-1.092190338977006e-03 -1.295873898560340e-03 -2.969961785804165e-03
-1.489694385545429e-03 2.840973754713719e-03 -9.720115920346106e-04