<?xml version="1.0" ?> 
<!-- 
# vtk DataFile Version 3.0
-->
<VTKFile type="UnstructuredGrid" version="0.1" compressor="vtkZLibDataCompressor" byte_order="LittleEndian">
  <UnstructuredGrid>
    <FieldData>
      <DataArray type="Float64" Name="TIME" NumberOfTuples="1" format="ascii">
1.000000010000000e+00 
      </DataArray>
    </FieldData>

    <Piece NumberOfPoints="60" NumberOfCells="10" >
      <Points>
        <DataArray type="Float64" NumberOfComponents="3" format="ascii">
1.223099206163424e+00 1.754237234089672e-01 -5.686851649731367e-02
1.132113797043560e+00 3.177053720686678e-01 8.759813195509697e-02
1.036522618743218e+00 4.469631819556006e-01 2.389181975125548e-01
9.343408251124407e-01 5.637638849905109e-01 3.943266555602373e-01
8.235835700012685e-01 6.686742130941439e-01 5.510584814833221e-01
7.022660072597426e-01 7.622608981872449e-01 7.063486506669863e-01
7.022660072597426e-01 7.622608981872449e-01 7.063486506669863e-01
5.713831497872872e-01 8.411276388760259e-01 8.616760417970474e-01
4.342379928798523e-01 9.026341552525100e-01 1.019699678899870e+00
2.923076639826708e-01 9.484812114658790e-01 1.179424755370963e+00
1.470692905409757e-01 9.803695716653150e-01 1.339856464605836e+00
0.000000000000000e+00 1.000000000000000e+00 1.500000000000000e+00
1.000000000000000e-01 3.000000000000000e-01 2.500000000000000e+00
3.069708511608302e-01 3.068881310264718e-01 2.610222878110611e+00
5.118267033273687e-01 3.262436668550968e-01 2.722599697001300e+00
7.146394355268098e-01 3.574233221864384e-01 2.836122205758829e+00
9.154809267863480e-01 3.997838117210601e-01 2.949782153469961e+00
1.114423056133176e+00 4.526818501595253e-01 3.062571289221459e+00
1.114423056133176e+00 4.526818501595253e-01 3.062571289221459e+00
1.312781776661209e+00 5.131669001698976e-01 3.173676133505732e+00
1.510935284489751e+00 5.801525193828491e-01 3.282844097858460e+00
1.707548823184089e+00 6.557915649428564e-01 3.389908267931315e+00
1.901287636309505e+00 7.422368939943959e-01 3.494701729375972e+00
2.090816967431285e+00 8.416413636819442e-01 3.597057567844101e+00
1.343105214811996e+00 3.178624828540237e-01 4.944142803275297e+00
1.220783797286307e+00 4.330250412935840e-01 5.090445981709333e+00
1.099582226971832e+00 5.425803721909103e-01 5.240597498515455e+00
9.773414886397335e-01 6.439554198549933e-01 5.393849725042829e+00
8.519025670611751e-01 7.345771285948234e-01 5.549455032640623e+00
7.211064470073197e-01 8.118724427193911e-01 5.706665792658002e+00
7.211064470073197e-01 8.118724427193911e-01 5.706665792658002e+00
5.849223235134333e-01 8.760913392753447e-01 5.865341217487321e+00
4.447430878876781e-01 9.283249167740520e-01 6.025108303426223e+00
3.005452693081342e-01 9.672618017228432e-01 6.184871097684668e+00
1.523053969528813e-01 9.915906206290490e-01 6.343533647472606e+00
0.000000000000000e+00 1.000000000000000e+00 6.500000000000000e+00
1.000000000000000e-01 3.000000000000000e-01 1.750000000000000e+01
3.080892413279804e-01 3.044541203805553e-01 1.761049110789104e+01
5.155179342497850e-01 3.156464840633100e-01 1.772203577415970e+01
7.222804454499687e-01 3.332353934260461e-01 1.783419705962929e+01
9.283711416130870e-01 3.568791508465453e-01 1.794653802512311e+01
1.133784389423695e+00 3.862360587025893e-01 1.805862173146446e+01
1.133784389423695e+00 3.862360587025893e-01 1.805862173146446e+01
1.339418873134730e+00 4.190832883141181e-01 1.816989366096747e+01
1.545502749608218e+00 4.554341939187749e-01 1.828007829391865e+01
1.751024594442340e+00 4.983013522708966e-01 1.838915718809985e+01
1.954972983235281e+00 5.506973401248202e-01 1.849711190129296e+01
2.156336491585223e+00 6.156347342348826e-01 1.860392399127983e+01
1.000000000000000e-01 3.000000000000000e-01 2.250000000000000e+01
3.039161275887470e-01 3.124658248618198e-01 2.261188269876765e+01
5.026602868511165e-01 3.470106592040600e-01 2.272846970347261e+01
6.971736280635425e-01 3.997557221776362e-01 2.284753410459442e+01
8.883973015024590e-01 4.668222329334642e-01 2.296684899261264e+01
1.077272457444300e+00 5.443314106224593e-01 2.308418745800680e+01
1.077272457444300e+00 5.443314106224593e-01 2.308418745800680e+01
1.264636903601023e+00 6.309322048712639e-01 2.319801997364191e+01
1.450119384282307e+00 7.278492526630911e-01 2.330816698837373e+01
1.632847454661169e+00 8.350673041837124e-01 2.341442655666787e+01
1.811948669910624e+00 9.525711096188996e-01 2.351659673298994e+01
1.986550585203689e+00 1.080345419154424e+00 2.361447557180559e+01
        </DataArray>
      </Points>

      <Cells>
        <DataArray type="Int32" Name="connectivity" format="ascii">
0 1 2 3 4 5 6 7 8 9 10 11 12 13 14 15 16 17 18 19 20 21 22 23 24 25 26 27 28 29 30 31 32 33 34 35 36 37 38 39 40 41 42 43 44 45 46 47 48 49 50 51 52 53 54 55 56 57 58 59 
        </DataArray>
        <DataArray type="Int32" Name="offsets" format="ascii">
6 12 18 24 30 36 42 48 54 60 
        </DataArray>
        <DataArray type="UInt8" Name="types" format="ascii">
4 4 4 4 4 4 4 4 4 4 
        </DataArray>
      </Cells>

  <PointData>
        <DataArray type="Float64" Name="base_vector_1" NumberOfComponents="3" format="ascii">
-3.901802875456490e-01 6.691671180148451e-01 6.324355393069722e-01
-4.176491238794326e-01 6.126254473251362e-01 6.710136143271748e-01
-4.489530663659473e-01 5.587933153459818e-01 6.972741031511633e-01
-4.862468284495427e-01 5.069344524728245e-01 7.117453777291697e-01
-5.308459562192813e-01 4.556621796925849e-01 7.145449942190059e-01
-5.831570215137720e-01 4.030927733194960e-01 7.052971744993618e-01
-5.831570215137720e-01 4.030927733194962e-01 7.052971744993619e-01
-6.111106888884639e-01 3.272485855401499e-01 7.207302471717406e-01
-6.377314083237877e-01 2.493390954636975e-01 7.287857478784175e-01
-6.629478319378093e-01 1.690507585910908e-01 7.293298383781757e-01
-6.863362376565214e-01 8.603884004492152e-02 7.221771852414172e-01
-7.071067811881102e-01 -1.051936315832336e-12 7.071067811849854e-01
8.858315352803766e-01 -3.007370309261658e-18 4.640069946701352e-01
8.779921754086942e-01 5.541211865193425e-02 4.754568718901984e-01
8.693846871562395e-01 1.078097039363842e-01 4.822316180793175e-01
8.605300539916280e-01 1.570902208365487e-01 4.845726866990031e-01
8.518798825250875e-01 2.031954386409781e-01 4.827134548202935e-01
8.438172512955933e-01 2.461010457660400e-01 4.768718084441678e-01
8.438172512955933e-01 2.461010457660400e-01 4.768718084441678e-01
8.419528922470243e-01 2.697990664356977e-01 4.672513145912987e-01
8.363466347493218e-01 3.015032183277099e-01 4.578428943224058e-01
8.263182769905497e-01 3.409406353586255e-01 4.482829332827938e-01
8.110151807275807e-01 3.877003020718666e-01 4.381128306758352e-01
7.894333925858241e-01 4.411917636666366e-01 4.267841917681098e-01
-5.399582526292510e-01 5.380921837288138e-01 6.472263029478349e-01
-5.403860094143198e-01 5.129110768916337e-01 6.670121348454850e-01
-5.491060810609463e-01 4.802003681286115e-01 6.840249397434535e-01
-5.653519993836769e-01 4.382741412751696e-01 6.987795746030298e-01
-5.878572197088567e-01 3.855093889126857e-01 7.112006751236535e-01
-6.148743849547587e-01 3.204222828693775e-01 7.205963165096555e-01
-6.148743849547591e-01 3.204222828693777e-01 7.205963165096555e-01
-6.317395403548391e-01 2.671154206195088e-01 7.277049575339722e-01
-6.504477840458165e-01 2.090247194204937e-01 7.302234910635731e-01
-6.700916976833198e-01 1.454786564289576e-01 7.278825985140137e-01
-6.894744614652177e-01 7.592627057791829e-02 7.203194905202679e-01
-7.071067811881098e-01 -1.052102849286030e-12 7.071067811849854e-01
8.858315352803766e-01 -4.285442087758693e-18 4.640069946701352e-01
8.820085391133442e-01 3.135667674956131e-02 4.701890000354835e-01
8.783337503339141e-01 6.061014015272587e-02 4.741900820715554e-01
8.749994341669126e-01 8.774471130028802e-02 4.761059292283724e-01
8.721738611913068e-01 1.127541487007106e-01 4.760244298409750e-01
8.700017044382493e-01 1.356392013710632e-01 4.740243045730475e-01
8.700017044382493e-01 1.356392013710632e-01 4.740243045730473e-01
8.714898727245812e-01 1.453451587154020e-01 4.683803866266049e-01
8.703315482778267e-01 1.666910940108260e-01 4.633973189928864e-01
8.658777650322108e-01 1.995458796340418e-01 4.587342781435675e-01
8.571160506045128e-01 2.436505047246177e-01 4.538573645359974e-01
8.426891801929717e-01 2.985503605209157e-01 4.480431093304847e-01
8.858315352803766e-01 2.231274811136125e-17 4.640069946701352e-01
8.652071472758316e-01 1.026257966755224e-01 4.907998962505308e-01
8.423445525796120e-01 1.882399751598189e-01 5.049964024538037e-01
8.217528929334903e-01 2.570111499770291e-01 5.085936017518554e-01
8.068034549856524e-01 3.095656809777136e-01 5.032268615485651e-01
7.998117512256741e-01 3.466516765849946e-01 4.900344658512633e-01
7.998117512256741e-01 3.466516765849945e-01 4.900344658512631e-01
7.906713651145735e-01 3.890157237660528e-01 4.727637454909492e-01
7.791102527461061e-01 4.304661648746727e-01 4.557258989392526e-01
7.652934503140889e-01 4.708932963030173e-01 4.388455746652072e-01
7.493845049470199e-01 5.102001909585653e-01 4.220410274975093e-01
7.315450781316609e-01 5.483013211410244e-01 4.052251965220690e-01
        </DataArray>
        <DataArray type="Float64" Name="base_vector_2" NumberOfComponents="3" format="ascii">
-1.484960833424553e-01 6.321521853717559e-01 -7.604817734578940e-01
-2.671025335726307e-01 6.230949432404089e-01 -7.351251106222078e-01
-3.705879493225810e-01 5.936221399915942e-01 -7.143369840129267e-01
-4.574448115635951e-01 5.463194063794719e-01 -7.016262185713475e-01
-5.261514919859522e-01 4.837666162393339e-01 -6.993814899561621e-01
-5.749713890177850e-01 4.085264304251560e-01 -7.088822592328285e-01
-5.749713890177852e-01 4.085264304251558e-01 -7.088822592328285e-01
-6.353473643142852e-01 3.402731500323950e-01 -6.932156302521765e-01
-6.797466830165804e-01 2.628243385666806e-01 -6.847392306454654e-01
-7.071309569763180e-01 1.785753526846999e-01 -6.841612771118314e-01
-7.165386088074983e-01 9.006851228317680e-02 -6.917080924662588e-01
-7.071067811849854e-01 -4.358735594678365e-13 -7.071067811881100e-01
-2.691529694022568e-18 1.000000000000000e+00 1.161967869515268e-17
-4.906576453253628e-02 9.984633144729128e-01 -2.575966619742696e-02
-9.512812987963566e-02 9.941700195695199e-01 -5.076032993138975e-02
-1.382480906308946e-01 9.875804158722540e-01 -7.464842679184827e-02
-1.785151777059968e-01 9.791321703241760e-01 -9.712118391404181e-02
-2.160376517681533e-01 9.692377970135289e-01 -1.179229657821732e-01
-2.160376517681533e-01 9.692377970135289e-01 -1.179229657821732e-01
-2.367750661821527e-01 9.629150996315597e-01 -1.293525374160888e-01
-2.646324979745543e-01 9.534651031235812e-01 -1.444781580076588e-01
-2.993500957783438e-01 9.400846015151362e-01 -1.631884252991737e-01
-3.405250788380945e-01 9.217847835737036e-01 -1.853523224949987e-01
-3.875755505433674e-01 8.974122942175511e-01 -2.107993520108572e-01
-2.126843246543301e-01 6.567786122209964e-01 -7.234688884640401e-01
-3.176598660928626e-01 6.096995900476838e-01 -7.261946153542803e-01
-4.111317423803161e-01 5.573698903981257e-01 -7.213248198176094e-01
-4.921776470615788e-01 5.005825521100327e-01 -7.121644980311319e-01
-5.602303037892342e-01 4.402051409996967e-01 -7.016847159185239e-01
-6.149500803888328e-01 3.772459665892565e-01 -6.924751831812499e-01
-6.149500803888330e-01 3.772459665892560e-01 -6.924751831812501e-01
-6.586275750082106e-01 3.101018948731344e-01 -6.855993963203992e-01
-6.906073430962910e-01 2.374656947214976e-01 -6.831336190613948e-01
-7.099687948674201e-01 1.605485955226792e-01 -6.856883102330087e-01
-7.157731615964031e-01 8.081357836499659e-02 -6.936410791541506e-01
-7.071067811849854e-01 -4.356515148629114e-13 -7.071067811881098e-01
2.057690268293041e-18 1.000000000000000e+00 5.307409557513043e-18
-2.780520423931444e-02 9.995082175061577e-01 -1.449806038314481e-02
-5.365119185671290e-02 9.981612929148722e-01 -2.820607982093386e-02
-7.757104436662104e-02 9.961424554873990e-01 -4.102366940446835e-02
-9.960105971974914e-02 9.936220616115147e-01 -5.286612886892976e-02
-1.197785305982892e-01 9.907573230267158e-01 -6.366341552768454e-02
-1.197785305982892e-01 9.907573230267158e-01 -6.366341552768454e-02
-1.283713030853728e-01 9.893807482405969e-01 -6.816555988943498e-02
-1.472711155209716e-01 9.860091265755453e-01 -7.808470300218179e-02
-1.763641946134349e-01 9.798884815949231e-01 -9.335006425252490e-02
-2.153947728168321e-01 9.698630889152613e-01 -1.138888958719565e-01
-2.639053131129341e-01 9.543936897032570e-01 -1.395946659631640e-01
-2.148381720179263e-17 1.000000000000000e+00 -7.072534193471146e-18
-9.589065192096909e-02 9.946300957099210e-01 -3.893527426698111e-02
-1.758442538982755e-01 9.817346883027653e-01 -7.263470351031251e-02
-2.405430505980553e-01 9.655484704924988e-01 -9.927331936919249e-02
-2.909030023874218e-01 9.494859630625047e-01 -1.176938789795449e-01
-3.277645567664977e-01 9.361476737712752e-01 -1.272710816340124e-01
-3.277645567664976e-01 9.361476737712752e-01 -1.272710816340124e-01
-3.680784550844868e-01 9.190896119235318e-01 -1.406859486831192e-01
-4.065624298129364e-01 9.003176128823670e-01 -1.553550340297912e-01
-4.431643981510378e-01 8.799125602829879e-01 -1.713452726738201e-01
-4.778303817201850e-01 8.579429549413284e-01 -1.887114526775839e-01
-5.105028666495843e-01 8.344652720267949e-01 -2.074958624257456e-01
        </DataArray>
        <DataArray type="Float64" Name="base_vector_3" NumberOfComponents="3" format="ascii">
-9.086849049273048e-01 -3.906391975946851e-01 -1.472846253341991e-01
-8.684615396676030e-01 -4.862537948416529e-01 -9.660124802645131e-02
-8.130840768441461e-01 -5.791051593937376e-01 -5.942641118270808e-02
-7.445188152063774e-01 -6.667477537339432e-01 -3.375154358592947e-02
-6.643547081541554e-01 -7.472227505972684e-01 -1.705821629771065e-02
-5.738778529183234e-01 -8.189153629903871e-01 -6.468244597845452e-03
-5.738778529183235e-01 -8.189153629903871e-01 -6.468244597845230e-03
-4.720989860031031e-01 -8.815455442738068e-01 -2.803282803243157e-05
-3.622748925406173e-01 -9.320694086441912e-01 1.876087511905378e-03
-2.458983160062626e-01 -9.692949419208335e-01 1.154881800238705e-03
-1.245591866050289e-01 -9.922121653652610e-01 -1.671331025570044e-04
1.051936315832336e-12 -1.000000000000000e+00 -4.358735594678365e-13
-4.640069946701352e-01 -1.154196642238062e-17 8.858315352803766e-01
-4.761536418761766e-01 -7.118695590600417e-04 8.793618155058728e-01
-4.848926733245726e-01 -1.743538439367396e-03 8.745719269619050e-01
-4.902810333003693e-01 -2.754033970440585e-03 8.715600516790635e-01
-4.923748542296199e-01 -3.436095424928995e-03 8.703764680703352e-01
-4.912231462731085e-01 -3.516832839772943e-03 8.710266657527341e-01
-4.912231462731085e-01 -3.516832839772929e-03 8.710266657527341e-01
-4.848225399786071e-01 -1.724717939085199e-03 8.746108449343185e-01
-4.800978520668801e-01 -3.262875599518988e-04 8.772148801617516e-01
-4.770614481058655e-01 6.520394040130106e-04 8.788696999986688e-01
-4.757068922264204e-01 1.135141120688687e-03 8.796031287705365e-01
-4.760043185638570e-01 1.000929525093119e-03 8.794423726706850e-01
-8.143773470964781e-01 -5.282978859876486e-01 -2.401892591209771e-01
-7.791502873663921e-01 -6.043083956867975e-01 -1.665418644044723e-01
-7.276353497111137e-01 -6.773082102903576e-01 -1.086295821774987e-01
-6.619201466384043e-01 -7.465473096947834e-01 -6.729661107124363e-02
-5.835802395150089e-01 -8.109265964916953e-01 -4.280372822547096e-02
-4.937265329676692e-01 -8.689160151205144e-01 -3.491517307433534e-02
-4.937265329676691e-01 -8.689160151205149e-01 -3.491517307433534e-02
-4.087968573644634e-01 -9.124067990010567e-01 -1.997404680039372e-02
-3.161948416583834e-01 -9.486404537555948e-01 -1.010502879806419e-02
-2.166135429985637e-01 -9.762479751576036e-01 -4.296974550666688e-03
-1.108771758548116e-01 -9.938331685891623e-01 -1.372911682503419e-03
1.051991826983567e-12 -1.000000000000000e+00 -4.360956040727615e-13
-4.640069946701352e-01 -3.746688079340885e-18 8.858315352803766e-01
-4.704123803093987e-01 -2.862881185510370e-04 8.824466615556765e-01
-4.750277598590588e-01 -6.665111984328741e-04 8.799705581018644e-01
-4.778689394420341e-01 -1.036346643025095e-03 8.784305337943240e-01
-4.789492507117536e-01 -1.304081922798791e-03 8.778416227389702e-01
-4.782783058871224e-01 -1.390654650189442e-03 8.782072239496713e-01
-4.782783058871223e-01 -1.390654650189432e-03 8.782072239496713e-01
-4.733140715029045e-01 -7.210054586444664e-04 8.808934497817951e-01
-4.699300103265694e-01 -2.854596368067411e-04 8.827036331109475e-01
-4.681360559508079e-01 -7.455650577620904e-05 8.836563967743059e-01
-4.679285924575539e-01 -1.425032879973295e-04 8.837662655100077e-01
-4.692855541101405e-01 -6.060424361437194e-04 8.830462623306347e-01
-4.640069946701352e-01 -3.703567630920848e-18 8.858315352803766e-01
-4.921601113225136e-01 -1.337604443727054e-02 8.704019222509928e-01
-5.094452405415250e-01 -2.761726878065537e-02 8.600597847560860e-01
-5.165861242468880e-01 -4.076051909729943e-02 8.552644949479065e-01
-5.142408270695724e-01 -5.143437671511694e-02 8.561021414917320e-01
-5.028633591036256e-01 -5.882302281796152e-02 8.623620434930886e-01
-5.028633591036255e-01 -5.882302281796153e-02 8.623620434930886e-01
-4.892412935254691e-01 -6.277779796254344e-02 8.698861447295846e-01
-4.771731391544372e-01 -6.424232897309665e-02 8.764580528682548e-01
-4.668310734278360e-01 -6.335132005819666e-02 8.820744634831564e-01
-4.583677454298591e-01 -6.024658672808979e-02 8.867183085609334e-01
-4.519166093472323e-01 -5.507604757291885e-02 8.903583588532467e-01
        </DataArray>
        <DataArray type="Float64" Name="displacement" NumberOfComponents="3" format="ascii">
2.230992061634245e-01 1.754237234089672e-01 1.392781029758633e-02
1.448121704261166e-01 1.614487936862364e-01 1.353053872457641e-03
8.633346764441530e-02 1.383091652712372e-01 -4.425627150871081e-03
4.420428472229998e-02 1.101300410767313e-01 -6.135029584995344e-03
1.496580856374929e-02 8.103662401547984e-02 -6.501950242510990e-03
-4.840773927257347e-03 5.515411700024486e-02 -8.253185936013763e-03
-4.840773927257347e-03 5.515411700024486e-02 -8.253185936013763e-03
-1.625443929057713e-02 3.250987743956890e-02 -9.967199682988093e-03
-1.939585103305663e-02 1.249761486374579e-02 -9.042309160666617e-03
-1.634635270115070e-02 -1.707939631763855e-03 -6.435093171256678e-03
-9.187287841313618e-03 -6.932054951499289e-03 -3.102130516965840e-03
0.000000000000000e+00 0.000000000000000e+00 0.000000000000000e+00
0.000000000000000e+00 0.000000000000000e+00 0.000000000000000e+00
-3.029148839195028e-03 6.888131026471789e-03 2.228781106587974e-04
-8.173296672643882e-03 2.624366685509683e-02 2.599697001324230e-03
-1.536056447317757e-02 5.742332218643842e-02 6.122205758804622e-03
-2.451907321362667e-02 9.978381172106016e-02 9.782153469913180e-03
-3.557694386682342e-02 1.526818501595253e-01 1.257128922145956e-02
-3.557694386682342e-02 1.526818501595253e-01 1.257128922145956e-02
-4.721822333881631e-02 2.131669001698976e-01 1.367613350578001e-02
-5.906471551026082e-02 2.801525193828491e-01 1.284409785848428e-02
-7.245117681589885e-02 3.557915649428564e-01 9.908267931291181e-03
-8.871236369046986e-02 4.422368939943959e-01 4.701729375924391e-03
-1.091830325687151e-01 5.416413636819442e-01 -2.942432155899066e-03
3.431052148119962e-01 3.178624828540237e-01 1.493913006529723e-02
2.334821706689549e-01 2.767684629115773e-01 4.200903623003072e-03
1.493930758733025e-01 2.339263555068537e-01 -2.746326149896561e-03
8.720494825000313e-02 1.903215759411901e-01 -6.611960102377523e-03
4.328480562402071e-02 1.469395395159235e-01 -8.105399083418341e-03
1.399966582031975e-02 1.047656615323911e-01 -7.936043941997539e-03
1.399966582031975e-02 1.047656615323911e-01 -7.936043941997539e-03
-2.715265564341429e-03 6.747357783874908e-02 -6.302023990174099e-03
-8.890756025221935e-03 3.818837638513195e-02 -3.633684632442957e-03
-8.108747375803860e-03 1.707265062509633e-02 -9.887508564228042e-04
-3.951181429569239e-03 4.288994012200065e-03 5.750523502632277e-04
0.000000000000000e+00 0.000000000000000e+00 0.000000000000000e+00
0.000000000000000e+00 0.000000000000000e+00 0.000000000000000e+00
-1.910758672044821e-03 4.454120380555315e-03 4.911078910865285e-04
-4.482065750227582e-03 1.564648406331004e-02 2.035774159722337e-03
-7.719554550018604e-03 3.323539342604614e-02 4.197059629266420e-03
-1.162885838688787e-02 5.687915084654527e-02 6.538025123056457e-03
-1.621561057630538e-02 8.623605870258932e-02 8.621731464462101e-03
-1.621561057630538e-02 8.623605870258932e-02 8.621731464462101e-03
-2.058112686529534e-02 1.190832883141181e-01 9.893660967520645e-03
-2.449725039179484e-02 1.554341939187749e-01 1.007829391867077e-02
-2.897540555764699e-02 1.983013522708966e-01 9.157188099830904e-03
-3.502701676469355e-02 2.506973401248202e-01 7.111901292912393e-03
-4.366350841477695e-02 3.156347342348826e-01 3.923991279830119e-03
0.000000000000000e+00 0.000000000000000e+00 0.000000000000000e+00
-6.083872411278168e-03 1.246582486181980e-02 1.882698767705193e-03
-1.733971314889593e-02 4.701065920406000e-02 8.469703472638201e-03
-3.282637193644478e-02 9.975572217763623e-02 1.753410459440019e-02
-5.160269849751575e-02 1.668222329334642e-01 2.684899261258877e-02
-7.272754255569991e-02 2.443314106224593e-01 3.418745800679446e-02
-7.272754255569991e-02 2.443314106224593e-01 3.418745800679446e-02
-9.536309639900220e-02 3.309322048712639e-01 3.801997364196197e-02
-1.198806157177053e-01 4.278492526630911e-01 3.816698837374943e-02
-1.471525453388187e-01 5.350673041837124e-01 3.442655666784233e-02
-1.780513300893511e-01 6.525711096188995e-01 2.659673298989418e-02
-2.134494147963115e-01 7.803454191544239e-01 1.447557180559045e-02
        </DataArray>
  </PointData>
  <CellData>
        <DataArray type="Float64" Name="axial_strain_GPs" NumberOfComponents="3" format="ascii">
5.128782874548765e-03 -1.134930261318989e-02 -1.771844809913281e-02
-1.771844809913281e-02 -1.613392359740196e-02 -2.178268686608398e-02
-9.607369765312512e-03 -1.071107022688134e-02 -9.683112030744012e-03
-9.683112030743901e-03 -3.112839744316420e-03 3.013165499153980e-03
4.538223573485656e-03 -6.584902696797457e-03 -1.566076858169385e-02
-1.566076858169352e-02 -1.542065610652621e-02 -1.481230555852475e-02
-6.267633744806544e-03 -4.950523407636132e-03 -5.473135413618602e-03
-5.473135413618491e-03 -1.943984290026624e-03 1.708079496972048e-03
-1.426991679601131e-02 -1.237589313197873e-02 -7.621266832594120e-03
-7.621266832594120e-03 -7.777265966157909e-05 1.869658078103464e-03
        </DataArray>
        <DataArray type="Float64" Name="cross_section_radius" format="ascii">
1.000000000000000e-01
1.000000000000000e-01
1.000000000000000e-01
1.000000000000000e-01
1.000000000000000e-01
1.000000000000000e-01
1.000000000000000e-01
1.000000000000000e-01
1.000000000000000e-01
1.000000000000000e-01
        </DataArray>
        <DataArray type="Float64" Name="curvature_2_GPs" NumberOfComponents="3" format="ascii">
2.972431095869955e-01 2.266670911232620e-01 1.698554711798439e-01
1.427672256176259e-01 1.211919697715416e-01 1.079569569526073e-01
-5.711345597742110e-02 -2.637743268647155e-02 4.352098588126285e-03
3.131758309928673e-02 1.514146924752804e-02 -1.003071977277189e-03
4.483796127037994e-01 3.203121179031725e-01 1.937229891500883e-01
2.510886667423026e-01 2.006622368598693e-01 1.557497180054480e-01
-3.004111994039302e-02 -1.371084724220658e-02 2.617308570616564e-03
2.348199600078257e-02 8.587505333094811e-03 -6.280497898346327e-03
-1.353640192083871e-01 -4.774316921906482e-02 3.859713173744646e-02
5.459209241822720e-02 4.602360705695084e-02 3.832410365296292e-02
        </DataArray>
        <DataArray type="Float64" Name="curvature_3_GPs" NumberOfComponents="3" format="ascii">
-2.597613029837978e-01 -1.096337589841174e-01 4.848157744905614e-02
-9.755226143569494e-02 -2.681837425693778e-03 9.374247537043551e-02
2.331140980892609e-01 2.098073389392831e-01 1.864973838636332e-01
1.056781267207426e-01 1.756858999138418e-01 2.456962886056170e-01
-1.352868407326752e-01 -1.141357326789864e-01 -7.889731685972952e-02
-5.405964649405930e-02 1.234883639226193e-02 8.230991455724934e-02
1.317397619447445e-01 1.147916601039354e-01 9.784188903595062e-02
4.449114339589941e-02 1.409789781584638e-01 2.374694705017905e-01
4.302592359040988e-01 2.994603659329939e-01 1.677803711197478e-01
1.889866022157720e-01 1.882472220455955e-01 1.873316986663224e-01
        </DataArray>
        <DataArray type="Float64" Name="element_owner" format="ascii">
2.000000000000000e+00
2.000000000000000e+00
2.000000000000000e+00
2.000000000000000e+00
2.000000000000000e+00
2.000000000000000e+00
2.000000000000000e+00
2.000000000000000e+00
2.000000000000000e+00
2.000000000000000e+00
        </DataArray>
        <DataArray type="Float64" Name="material_axial_force_GPs" NumberOfComponents="3" format="ascii">
1.611254660053954e-03 -3.565488571296481e-03 -5.566414638124767e-03
-5.566414638124767e-03 -5.068621584717699e-03 -6.843232903393630e-03
-3.018244227502648e-03 -3.364981953685476e-03 -3.042039361967233e-03
-3.042039361967198e-03 -9.779274472546797e-04 9.466138596192366e-04
1.425724983881056e-03 -2.068708193686250e-03 -4.919975552581925e-03
-4.919975552581820e-03 -4.844541993779732e-03 -4.653423032538862e-03
-1.969035212807572e-03 -1.555252796885398e-03 -1.719436200752633e-03
-1.719436200752598e-03 -6.107206764241611e-04 5.366089999434736e-04
-4.483026577368672e-03 -3.888001494503676e-03 -2.394291589232524e-03
-2.394291589232524e-03 -2.443300162429561e-05 5.873704082894655e-04
        </DataArray>
        <DataArray type="Float64" Name="material_bending_moment_2_GPs" NumberOfComponents="3" format="ascii">
2.334541923521728e-04 1.780239170708521e-04 1.334041751076576e-04
1.121291167934325e-04 9.518395047708788e-05 8.478919571655519e-05
-4.485680342994755e-05 -2.071678718709458e-05 3.418130238039013e-06
2.459677224822677e-05 1.189208213814747e-05 -7.878108887089513e-07
3.521565243224233e-04 2.515725491150986e-04 1.521496798863432e-04
1.972045777093185e-04 1.575997522929652e-04 1.223255424711493e-04
-2.359424042758714e-05 -1.076847424265202e-05 2.055629344406651e-06
1.844271653192086e-05 6.744610916778458e-06 -4.932691514582741e-06
-1.063146520763641e-04 -3.749739741942710e-05 3.031411637899982e-05
4.287652912129941e-05 3.614685645545503e-05 3.009968062289052e-05
        </DataArray>
        <DataArray type="Float64" Name="material_bending_moment_3_GPs" NumberOfComponents="3" format="ascii">
-2.040160502852029e-04 -8.610615295248434e-05 3.807734188709985e-05
-7.661736696686254e-05 -2.106310188670434e-06 7.362516798827059e-05
1.830873845013582e-04 1.647822986702189e-04 1.464747027649265e-04
8.299940663775402e-05 1.379833831271593e-04 1.929694138244210e-04
-1.062540362432862e-04 -8.964199482409805e-05 -6.196580775861811e-05
-4.245834707034949e-05 9.698753422578092e-06 6.464605572266454e-05
1.034681670778194e-04 9.015715901897503e-05 7.684483995217257e-05
3.494326231059192e-05 1.107246305233065e-04 1.865080859950708e-04
3.379248136638687e-04 2.351956214141012e-04 1.317743953315923e-04
1.484297302869915e-04 1.478490224592824e-04 1.471299720786538e-04
        </DataArray>
        <DataArray type="Float64" Name="material_shear_force_2_GPs" NumberOfComponents="3" format="ascii">
6.292676516310118e-04 -4.287365190110135e-04 1.762833807874611e-04
1.762833807874786e-04 -1.826396740933537e-04 -6.090824619734910e-03
2.915443205189704e-04 3.423815437837505e-05 1.200556331551291e-04
1.200556331551203e-04 -9.859194126782110e-05 1.251651631616780e-03
-7.577510408967302e-04 -5.625239147599928e-04 -2.850179952055649e-04
-2.850179952055649e-04 -1.790983536778007e-04 -3.286433471705537e-04
6.434509695658955e-04 2.838598313873748e-05 8.045782779733553e-05
8.045782779733116e-05 -1.668471838940045e-04 9.132761844366245e-04
8.838637426251534e-05 2.092831625231950e-04 -6.657183277300810e-05
-6.657183277299067e-05 2.808789089909978e-04 2.130948807416033e-03
        </DataArray>
        <DataArray type="Float64" Name="material_shear_force_3_GPs" NumberOfComponents="3" format="ascii">
1.662550364027123e-03 -1.469306280402523e-04 -8.506700282240208e-05
-8.506700282236924e-05 -3.017642209587659e-05 -9.952895812466410e-03
-9.975696840654973e-05 5.376489087484794e-05 6.381172515315876e-05
6.381172515315876e-05 -2.537989595740221e-05 -7.777758226907096e-07
2.951028840769646e-03 -2.771401605280873e-04 8.407756878459297e-05
8.407756878457554e-05 -8.473809863088342e-05 -8.868154713927639e-06
3.800743836893547e-04 2.812998493347478e-05 4.334226949128635e-05
4.334226949128635e-05 -2.204149914537173e-05 2.258384497353964e-05
2.677336118616507e-04 1.887715312341989e-04 2.384325161242318e-04
2.384325161242493e-04 2.357813630299518e-04 6.600357184987607e-05
        </DataArray>
        <DataArray type="Float64" Name="material_torque_GPs" NumberOfComponents="3" format="ascii">
-1.690550569861198e-05 -5.039274626407620e-05 -7.551272144144282e-05
-7.535708565418934e-05 -7.908281217797041e-05 -7.675215805995908e-05
1.096293171108420e-06 6.438022503869367e-07 1.242918970167895e-06
5.238874936081289e-07 5.881496821656758e-07 -5.039624170196304e-08
-1.521642674206455e-06 -5.276121211919849e-05 -1.006639442748121e-04
-1.118258023763590e-04 -1.120381871384612e-04 -1.090395834516044e-04
5.724479508564823e-07 4.375043584719949e-07 5.985951389657396e-07
4.254046691340591e-07 5.280113418960935e-07 1.031739884917408e-07
3.878014620778280e-05 3.625590030910504e-05 3.731267508741452e-05
3.068701081584313e-05 1.496549769230416e-05 -1.025322095331204e-06
        </DataArray>
        <DataArray type="Float64" Name="shear_strain_2_GPs" NumberOfComponents="3" format="ascii">
4.006042291396172e-03 -2.729421451384606e-03 1.122254857491012e-03
1.122254857491123e-03 -1.162720277466001e-03 -3.877539382946499e-02
1.856028789638481e-03 2.179668604664724e-04 7.642978985066412e-04
7.642978985065857e-04 -6.276557920719822e-04 7.968261768033863e-03
-4.823992951669742e-03 -3.581138465658273e-03 -1.814480912284311e-03
-1.814480912284311e-03 -1.140175531497700e-03 -2.092208528658379e-03