<?xml version="1.0" ?> 
<!-- 
# vtk DataFile Version 3.0
-->
<VTKFile type="UnstructuredGrid" version="0.1" compressor="vtkZLibDataCompressor" byte_order="LittleEndian">
  <UnstructuredGrid>
    <FieldData>
      <DataArray type="Float64" Name="TIME" NumberOfTuples="1" format="ascii">
3.000000000000000e+00 
      </DataArray>
    </FieldData>

    <Piece NumberOfPoints="60" NumberOfCells="10" >
      <Points>
        <DataArray type="Float64" NumberOfComponents="3" format="ascii">
1.328280667994815e+00 2.706090852537380e-01 -3.004723331474513e-02
1.197746822531454e+00 3.927780420394205e-01 1.029781141511154e-01
1.075065050500799e+00 5.055980414221937e-01 2.472464269420014e-01
9.553796720927619e-01 6.087398744908045e-01 3.987925108942487e-01
8.338350074972549e-01 7.018743323340000e-01 5.536511718441932e-01
7.055753769041896e-01 7.846722060405271e-01 7.078572156281707e-01
7.055753769041896e-01 7.846722060405271e-01 7.078572156281707e-01
5.704515547656731e-01 8.545631704485944e-01 8.624469763927297e-01
4.318637036465494e-01 9.099343966218776e-01 1.020242604721191e+00
2.902802259062650e-01 9.518929199870745e-01 1.179957631104556e+00
1.461695239042663e-01 9.815457759708827e-01 1.340305586033825e+00
0.000000000000000e+00 1.000000000000000e+00 1.500000000000000e+00
1.000000000000000e-01 3.000000000000000e-01 2.500000000000000e+00
3.043934143741018e-01 3.121600994378311e-01 2.610314462456858e+00
5.039572161938772e-01 3.460947086783865e-01 2.724304017004711e+00
6.985334302373947e-01 3.998900825690617e-01 2.839987209191932e+00
8.879640812827233e-01 4.716324759572518e-01 2.955382584566888e+00
1.072091194107932e+00 5.594081436903522e-01 3.068508688677949e+00
1.072091194107932e+00 5.594081436903522e-01 3.068508688677949e+00
1.253286537217083e+00 6.590178963333635e-01 3.177902234343285e+00
1.432452857795169e+00 7.688258479577456e-01 3.283148495648800e+00
1.607228648641652e+00 8.907632086705825e-01 3.383838860044464e+00
1.775252402555997e+00 1.026761188578959e+00 3.479564714980248e+00
1.934162612337667e+00 1.178750997789959e+00 3.569917447906126e+00
1.411971574608792e+00 3.753854152970650e-01 4.979584958765173e+00
1.262539700463897e+00 4.767363085077223e-01 5.111339169156832e+00
1.123137809092730e+00 5.757938246010885e-01 5.252301115990772e+00
9.895374051955995e-01 6.691665788614118e-01 5.400303833123516e+00
8.575099934728168e-01 7.534631865729401e-01 5.553180354411583e+00
7.228270786246918e-01 8.252922630199210e-01 5.708763713711497e+00
7.228270786246918e-01 8.252922630199210e-01 5.708763713711497e+00
5.843110006236160e-01 8.847568677517765e-01 5.866274390157026e+00
4.432699592902991e-01 9.333165676028786e-01 6.025487846988885e+00
2.992042490950508e-01 9.696147387860605e-01 6.185069594226830e+00
1.516141645081810e-01 9.922947575141564e-01 6.343685141890615e+00
0.000000000000000e+00 1.000000000000000e+00 6.500000000000000e+00
1.000000000000000e-01 3.000000000000000e-01 1.750000000000000e+01
3.061641374495033e-01 3.083746262770374e-01 1.761079837858265e+01
5.106884641757684e-01 3.295579172950978e-01 1.772353673261555e+01
7.134086874533990e-01 3.626525720703808e-01 1.783727224064113e+01
9.141605145569995e-01 4.067612896190859e-01 1.795106208120180e+01
1.112779652761173e+00 4.609867689574126e-01 1.806396343284000e+01
1.112779652761173e+00 4.609867689574126e-01 1.806396343284000e+01
1.311235983917937e+00 5.217898955466882e-01 1.817509048051260e+01
1.509820731001684e+00 5.891628084658026e-01 1.828390609548509e+01
1.705851612970585e+00 6.675050871572999e-01 1.838999048576285e+01
1.896646348782811e+00 7.612163110637241e-01 1.849292385935127e+01
2.079522657396530e+00 8.746960596276190e-01 1.859228642425574e+01
1.000000000000000e-01 3.000000000000000e-01 2.250000000000000e+01
2.986944550343942e-01 3.205567985000424e-01 2.261240355837051e+01
4.858112544318657e-01 3.773707666037979e-01 2.273181250663784e+01
6.632969691638987e-01 4.623810056774597e-01 2.285473381194635e+01
8.330981702019774e-01 5.675266170872205e-01 2.297767444144042e+01
9.971614285175857e-01 6.847467021992735e-01 2.309714136226444e+01
9.971614285175857e-01 6.847467021992735e-01 2.309714136226444e+01
1.156009286794784e+00 8.131302405771003e-01 2.321031380798625e+01
1.308619422248346e+00 9.562164299902536e-01 2.331673099382589e+01
1.454621107645823e+00 1.112619699114032e+00 2.341643985940607e+01
1.593643615754766e+00 1.280954476623737e+00 2.350948734434952e+01
1.725316219342730e+00 1.459835191194666e+00 2.359592038827896e+01
        </DataArray>
      </Points>

      <Cells>
        <DataArray type="Int32" Name="connectivity" format="ascii">
0 1 2 3 4 5 6 7 8 9 10 11 12 13 14 15 16 17 18 19 20 21 22 23 24 25 26 27 28 29 30 31 32 33 34 35 36 37 38 39 40 41 42 43 44 45 46 47 48 49 50 51 52 53 54 55 56 57 58 59 
        </DataArray>
        <DataArray type="Int32" Name="offsets" format="ascii">
6 12 18 24 30 36 42 48 54 60 
        </DataArray>
        <DataArray type="UInt8" Name="types" format="ascii">
4 4 4 4 4 4 4 4 4 4 
        </DataArray>
      </Cells>

  <PointData>
        <DataArray type="Float64" Name="base_vector_1" NumberOfComponents="3" format="ascii">
-5.925119312222069e-01 5.679309651110368e-01 5.713002977658754e-01
-5.638272839841263e-01 5.291979978343819e-01 6.340727662683251e-01
-5.490882480054129e-01 4.910754474996503e-01 6.762743531772925e-01
-5.518347720181493e-01 4.517098392896836e-01 7.010253957458075e-01
-5.735766737298853e-01 4.082187338762414e-01 7.101881896127533e-01
-6.138775491213395e-01 3.569076318940554e-01 7.041102875122305e-01
-6.138775491213400e-01 3.569076318940554e-01 7.041102875122304e-01
-6.264350786898074e-01 2.934095776803254e-01 7.221425841981266e-01
-6.426874800363251e-01 2.270708342179180e-01 7.317046120205462e-01
-6.622861803663205e-01 1.567677301254363e-01 7.326669735201047e-01
-6.842833264059247e-01 8.139849110742503e-02 7.246589645124650e-01
-7.071067811881107e-01 -1.052047338134798e-12 7.071067811849855e-01
8.858315352803766e-01 -1.797296592372300e-17 4.640069946701353e-01
8.691674510196764e-01 9.866814748968572e-02 4.845745956598551e-01
8.480194436962252e-01 1.889735668874428e-01 4.951282804798994e-01
8.246842175001685e-01 2.704764534751314e-01 4.967277217164850e-01
8.011190406327935e-01 3.430694764870991e-01 4.904198375254211e-01
7.789425184449986e-01 4.068784413199462e-01 4.771776262018309e-01
7.789425184449987e-01 4.068784413199463e-01 4.771776262018309e-01
7.694564840545015e-01 4.456343933819575e-01 4.575442127069028e-01
7.527048583515032e-01 4.919229737849469e-01 4.375467793009315e-01
7.276463000106737e-01 5.449411318773028e-01 4.166173602588604e-01
6.930969405307426e-01 6.035750712396948e-01 3.940986734371503e-01
6.477951425937898e-01 6.663383238278241e-01 3.692623612422711e-01
-6.797723570971146e-01 4.587002334151389e-01 5.722793359815910e-01
-6.394677896786856e-01 4.534853108686662e-01 6.208317153543360e-01
-6.145176879845557e-01 4.371072709417952e-01 6.567383381864753e-01
-6.057486727129602e-01 4.073440955929797e-01 6.834759200528038e-01
-6.122214571031217e-01 3.615754425754472e-01 7.031700269414941e-01
-6.313404981026849e-01 2.969033550571598e-01 7.164199698579442e-01
-6.313404981026844e-01 2.969033550571597e-01 7.164199698579441e-01
-6.406391610133422e-01 2.480061427091666e-01 7.266872907617430e-01
-6.538483702725792e-01 1.948781491898007e-01 7.310983625068860e-01
-6.702013467348389e-01 1.364527657115486e-01 7.295277908102460e-01
-6.885006527098825e-01 7.175781628530276e-02 7.216769824651688e-01
-7.071067811881098e-01 -1.052047338134798e-12 7.071067811849854e-01
8.858315352803766e-01 2.770147719801024e-17 4.640069946701352e-01
8.775576550217287e-01 5.992236869268028e-02 4.757119631069028e-01
8.682918333177434e-01 1.149985025484972e-01 4.825397772259975e-01
8.588459755005025e-01 1.651310210439719e-01 4.848869314134642e-01
8.499207731860092e-01 2.102960713936173e-01 4.831254926655258e-01
8.421076653043331e-01 2.505216641354001e-01 4.775914319107023e-01
8.421076653043331e-01 2.505216641354001e-01 4.775914319107023e-01
8.425553005276827e-01 2.699567875813936e-01 4.660728466575164e-01
8.359117706355104e-01 3.072184585748530e-01 4.548278030462706e-01
8.204051728447883e-01 3.616176311787372e-01 4.429086149423963e-01
7.934264314789408e-01 4.318646258231171e-01 4.289142604218852e-01
7.516715837021480e-01 5.157950815496382e-01 4.110295173146410e-01
8.858315352803766e-01 4.461218549165353e-17 4.640069946701352e-01
8.435986338280506e-01 1.731476268509658e-01 5.082924791095431e-01
7.912203065239327e-01 3.100284172245230e-01 5.271174509133909e-01
7.429577505103759e-01 4.112579585136459e-01 5.280915380080903e-01
7.086334907023631e-01 4.796500712172136e-01 5.174692116795991e-01
6.942351183622975e-01 5.181864973621504e-01 4.995201241031564e-01
6.942351183622975e-01 5.181864973621506e-01 4.995201241031566e-01
6.652648743915386e-01 5.812045240061936e-01 4.686405319384407e-01
6.344624349814015e-01 6.370307160112221e-01 4.377776666936092e-01
6.026835043159141e-01 6.860407023731553e-01 4.075791313510023e-01
5.706862497909877e-01 7.286832121806102e-01 3.786000271865370e-01
5.391327653802426e-01 7.654525232232907e-01 3.513094020725185e-01
        </DataArray>
        <DataArray type="Float64" Name="base_vector_2" NumberOfComponents="3" format="ascii">
-1.375472069240172e-01 6.274545622214909e-01 -7.664082059939331e-01
-2.647147099118399e-01 6.114412719080532e-01 -7.456981248224733e-01
-3.733778753180860e-01 5.797942461674537e-01 -7.241737321486234e-01
-4.631207475485850e-01 5.330824607361295e-01 -7.080552684964309e-01
-5.331060420299017e-01 4.722278909323909e-01 -7.019962727655744e-01
-5.815922790225408e-01 3.986231756723208e-01 -7.091191612121911e-01
-5.815922790225407e-01 3.986231756723208e-01 -7.091191612121913e-01
-6.419145270254427e-01 3.313694874069565e-01 -6.914766827662038e-01
-6.856371429478527e-01 2.556712712466862e-01 -6.815672448624637e-01
-7.118127682628137e-01 1.735940645542819e-01 -6.805789327400272e-01
-7.193606135173916e-01 8.747929794045828e-02 -6.891064360109599e-01
-7.071067811849855e-01 -4.363176486776865e-13 -7.071067811881101e-01
1.424277683066423e-17 1.000000000000000e+00 1.154350067711311e-17
-8.690046028378645e-02 9.951193025844834e-01 -4.675343437906238e-02
-1.653067390140069e-01 9.819735393197131e-01 -9.166051555861382e-02
-2.353362517159867e-01 9.627025222583975e-01 -1.334942031160513e-01
-2.973515015846704e-01 9.392708867990468e-01 -1.713250878215857e-01
-3.518668187245673e-01 9.134416315589637e-01 -2.044850302969655e-01
-3.518668187245674e-01 9.134416315589637e-01 -2.044850302969655e-01
-3.849272976647609e-01 8.952088804846182e-01 -2.245707813006430e-01
-4.248620237238194e-01 8.706384105154601e-01 -2.479536628735575e-01
-4.708699698293555e-01 8.384672545422722e-01 -2.743248704970923e-01
-5.218469669890196e-01 7.972930933913291e-01 -3.033141379409249e-01
-5.763325297766441e-01 7.456396402350889e-01 -3.344582814512760e-01
-1.444527220356887e-01 6.812658502228558e-01 -7.176421478819438e-01
-2.533026814607269e-01 6.381554178192587e-01 -7.270456755065209e-01
-3.544910614013592e-01 5.906973588173809e-01 -7.248535836103098e-01
-4.459401763051807e-01 5.375986193406486e-01 -7.156291523127978e-01
-5.259568408561760e-01 4.777993021303154e-01 -7.036172456956803e-01
-5.928930754820128e-01 4.106902900688155e-01 -6.926841175374771e-01
-5.928930754820124e-01 4.106902900688159e-01 -6.926841175374767e-01
-6.456969936739421e-01 3.381435563918340e-01 -6.846417513058316e-01
-6.845422373220360e-01 2.592499075941520e-01 -6.813159404670971e-01
-7.084340551584095e-01 1.754093938261279e-01 -6.836320165479103e-01
-7.163145163721517e-01 8.831544179577944e-02 -6.921660901654656e-01
-7.071067811849854e-01 -4.356515148629114e-13 -7.071067811881099e-01
-2.355682265016716e-17 1.000000000000000e+00 -1.472844354069168e-17
-5.291550451394914e-02 9.982029184422492e-01 -2.812264204179080e-02
-1.011784349259012e-01 9.933647498071417e-01 -5.467538885586339e-02
-1.448801681253698e-01 9.862692402009438e-01 -7.926362796022958e-02
-1.841564984334837e-01 9.776341849014717e-01 -1.015764962811451e-01
-2.191678011121402e-01 9.681078698617100e-01 -1.213780345346375e-01
-2.191678011121401e-01 9.681078698617100e-01 -1.213780345346374e-01
-2.360592807666292e-01 9.628723828056559e-01 -1.309686618779479e-01
-2.687766361893325e-01 9.516365837659085e-01 -1.488184540878522e-01
-3.166834600023860e-01 9.323217071862264e-01 -1.746076185917370e-01
-3.785291056024004e-01 9.019346595882689e-01 -2.079172576897846e-01
-4.522083211446350e-01 8.567117677031894e-01 -2.480979269692257e-01
-4.129646185337907e-17 1.000000000000000e+00 -1.730680222210044e-17
-1.512046743286521e-01 9.848803345392437e-01 -8.454509506194718e-02
-2.670278952276096e-01 9.506006711738062e-01 -1.582860294979372e-01
-3.505507008293514e-01 9.111942616110329e-01 -2.164237134770010e-01
-4.060795188704872e-01 8.770084091421775e-01 -2.568183689844257e-01
-4.373715714633931e-01 8.549083551297008e-01 -2.789942881226627e-01
-4.373715714633933e-01 8.549083551297008e-01 -2.789942881226628e-01
-4.885267669456075e-01 8.135335759992872e-01 -3.154436854645916e-01
-5.342114086586289e-01 7.707197658818266e-01 -3.472883720167232e-01
-5.746213178060545e-01 7.275161228763184e-01 -3.748741549878347e-01
-6.100220477560954e-01 6.848420160985594e-01 -3.985781156028524e-01
-6.407274382448842e-01 6.434920027746904e-01 -4.187915856905035e-01
        </DataArray>
        <DataArray type="Float64" Name="base_vector_3" NumberOfComponents="3" format="ascii">
-7.937319303308474e-01 -5.326867665105673e-01 -2.936569964393554e-01
-7.823202133342683e-01 -5.882933367764281e-01 -2.046607771730626e-01
-7.477239183851877e-01 -6.501411669584788e-01 -1.350014996234088e-01
-6.935398745434307e-01 -7.153889229953182e-01 -8.497723974030702e-02
-6.219387006001269e-01 -7.812543019644913e-01 -5.323502942425917e-02
-5.337647193906181e-01 -8.448174395173741e-01 -3.713109507088808e-02
-5.337647193906182e-01 -8.448174395173741e-01 -3.713109507088830e-02
-4.421818994266924e-01 -8.967190655612851e-01 -1.923760063777724e-02
-3.418398911988842e-01 -9.397185947434916e-01 -8.628527015258181e-03
-2.338794523548857e-01 -9.722597284382620e-01 -3.379677993056163e-03
-1.194848815655176e-01 -9.928351615838752e-01 -1.305756483925169e-03
1.052158360437261e-12 -1.000000000000000e+00 -4.360956040727615e-13
-4.640069946701353e-01 -3.616848854363231e-18 8.858315352803766e-01
-4.868226084421558e-01 -1.473192019005757e-03 8.734996151200358e-01
-5.035242845679837e-01 -4.118142026819857e-03 8.639712586403249e-01
-5.143080691904459e-01 -6.807477714610002e-03 8.575784909923759e-01
-5.194134838844043e-01 -8.575285103136210e-03 8.544800157080712e-01
-5.190744598217250e-01 -8.620888814358782e-03 8.546855476939077e-01
-5.190744598217251e-01 -8.620888814358768e-03 8.546855476939077e-01
-5.096741063257868e-01 -3.323813558453459e-03 8.603611204630526e-01
-5.029191356583524e-01 7.389165633443912e-04 8.643331516209292e-01
-4.988109196816753e-01 3.438873162641076e-03 8.667040097736323e-01
-4.972850028618252e-01 4.566903599001776e-03 8.675752240124379e-01
-4.981990248416244e-01 3.842539318348159e-03 8.670541889284900e-01
-7.190569891344591e-01 -5.705006022652620e-01 -3.968451955005381e-01
-7.258916568801873e-01 -6.221806293467171e-01 -2.932107892582754e-01
-7.047723735651497e-01 -6.782432188942156e-01 -2.080433548166323e-01
-6.589430208017941e-01 -7.382807814568699e-01 -1.439985523123106e-01
-5.903848651677338e-01 -8.006066613575943e-01 -1.023459074449209e-01
-4.998869637237363e-01 -8.620799750597360e-01 -8.325346899721531e-02
-4.998869637237363e-01 -8.620799750597357e-01 -8.325346899721509e-02
-4.155199847619304e-01 -9.078281161371922e-01 -5.649118350895299e-02
-3.223107724138824e-01 -9.459450260880816e-01 -3.610780532218927e-02
-2.212495069522651e-01 -9.749934293559214e-01 -2.089182582159999e-02
-1.134035486772663e-01 -9.935045035340211e-01 -9.404073852427919e-03
1.051936315832336e-12 -1.000000000000000e+00 -4.360956040727615e-13
-4.640069946701352e-01 2.116389272059820e-18 8.858315352803766e-01
-4.765422452362424e-01 -4.932987279135052e-04 8.791514347150701e-01
-4.856255929207780e-01 -1.348425822201283e-03 8.741658682699438e-01
-4.913179492452467e-01 -2.175252267765063e-03 8.709775777980836e-01
-4.936811353410365e-01 -2.638724776438256e-03 8.696389904666990e-01
-4.927678510123754e-01 -2.459290680674762e-03 8.701573403115056e-01
-4.927678510123754e-01 -2.459290680674762e-03 8.701573403115056e-01
-4.841245516565424e-01 3.275193014540545e-04 8.749990349791588e-01
-4.785505527650689e-01 2.152010511655131e-03 8.780573656083096e-01
-4.760745094314863e-01 2.987160865948371e-03 8.793998739706134e-01
-4.766447461605345e-01 2.610516434081875e-03 8.790921289384332e-01
-4.801015148302027e-01 6.171937124342802e-04 8.772127190879451e-01
-4.640069946701352e-01 -3.830935971899242e-18 8.858315352803766e-01
-5.152460494410538e-01 -5.534072076340359e-03 8.570244352301987e-01
-5.501513698196949e-01 -1.551594267733146e-02 8.349207901402067e-01
-5.701999536168102e-01 -2.432918342881128e-02 8.211456044631029e-01
-5.770077990884503e-01 -2.814355121922080e-02 8.162536004918286e-01
-5.716150005975427e-01 -2.478826901934503e-02 8.201474457747800e-01
-5.716150005975429e-01 -2.478826901934508e-02 8.201474457747800e-01
-5.645921048672952e-01 -1.908984013935047e-02 8.251492792973714e-01
-5.586372610705757e-01 -1.352439785322357e-02 8.293018155088492e-01
-5.536993179951760e-01 -8.273188161624534e-03 8.326755788476803e-01
-5.497183874957784e-01 -3.491313822693881e-03 8.353427471264911e-01
-5.466298667047026e-01 6.906924900314526e-04 8.373740572589310e-01
        </DataArray>
        <DataArray type="Float64" Name="displacement" NumberOfComponents="3" format="ascii">
3.282806679948149e-01 2.706090852537380e-01 4.074909348015487e-02
2.104408585558196e-01 2.365012652120666e-01 1.671463421614106e-02
1.248628873274232e-01 1.969294340339002e-01 3.893401352407982e-03
6.522361359076212e-02 1.551071468365485e-01 -1.659973324816655e-03
2.519989662697220e-02 1.142479587373210e-01 -3.890858029305000e-03
-1.531404282810400e-03 7.756542485352713e-02 -6.744620974829307e-03
-1.531404282810400e-03 7.756542485352713e-02 -6.744620974829307e-03
-1.717481883020699e-02 4.592805957937562e-02 -9.214666939639238e-03
-2.176902400683589e-02 1.977833812125618e-02 -8.508584265512154e-03
-1.838838148148531e-02 1.690756814860195e-03 -5.893016511496985e-03
-1.010725292294393e-02 -5.760188004122258e-03 -2.634607236643216e-03
0.000000000000000e+00 0.000000000000000e+00 0.000000000000000e+00
0.000000000000000e+00 0.000000000000000e+00 0.000000000000000e+00
-5.606585625923366e-03 1.216009943783108e-02 3.144624569060284e-04
-1.604278380613533e-02 4.609470867838655e-02 4.304017004736149e-03
-3.146656976259266e-02 9.989008256906168e-02 9.987209191907542e-03
-5.203591871725133e-02 1.716324759572518e-01 1.538258456683961e-02
-7.790880589206806e-02 2.594081436903522e-01 1.850868867794908e-02
-7.790880589206806e-02 2.594081436903522e-01 1.850868867794908e-02
-1.067134627829425e-01 3.590178963333635e-01 1.790223434333349e-02
-1.375471422048438e-01 4.688258479577456e-01 1.314849564882348e-02
-1.727713513583355e-01 5.907632086705825e-01 3.838860044439674e-03
-2.147475974439776e-01 7.267611885789587e-01 -1.043528501979951e-02
-2.658373876623334e-01 8.787509977899588e-01 -3.008255209387434e-02
4.119715746087924e-01 3.753854152970650e-01 5.038128555517307e-02
2.752337364883544e-01 3.204595316807931e-01 2.507568921816627e-02
1.729356459196277e-01 2.671252172131018e-01 8.948090399252706e-03
9.938134669401022e-02 2.155338512071325e-01 -1.486510955235332e-04
4.887488260289885e-02 1.658368129760251e-01 -4.361675460123671e-03
1.572029743769177e-02 1.181854818329210e-01 -5.838122888502717e-03
1.572029743769177e-02 1.181854818329210e-01 -5.838122888502717e-03
-3.315372972174546e-03 7.612175688241918e-02 -5.387253172801643e-03
-1.036276836307726e-02 4.316050910210134e-02 -3.263341995947577e-03
-9.464358292816000e-03 1.941257561374232e-02 -7.810533880938664e-04
-4.662612319190490e-03 4.988793539116854e-03 7.449486206061451e-04
0.000000000000000e+00 0.000000000000000e+00 0.000000000000000e+00
0.000000000000000e+00 0.000000000000000e+00 0.000000000000000e+00
-3.835862550521929e-03 8.374626277037389e-03 7.983785827043732e-04
-9.311535824244155e-03 2.955791729509782e-02 3.536732615579297e-03
-1.659131254658830e-02 6.265257207038077e-02 7.272240641103878e-03
-2.583948544297532e-02 1.067612896190859e-01 1.106208120175012e-02
-3.722034723882683e-02 1.609867689574127e-01 1.396343284000423e-02
-3.722034723882683e-02 1.609867689574127e-01 1.396343284000423e-02
-4.876401608208858e-02 2.217898955466882e-01 1.509048051265083e-02
-6.017926899832848e-02 2.891628084658026e-01 1.390609548511534e-02
-7.414838702940196e-02 3.675050871573000e-01 9.990485762827461e-03
-9.335365121716399e-02 4.612163110637241e-01 2.923859351220415e-03
-1.204773426034706e-01 5.746960596276189e-01 -7.713575744265455e-03
0.000000000000000e+00 0.000000000000000e+00 0.000000000000000e+00
-1.130554496563102e-02 2.055679850004244e-02 2.403558370563275e-03
-3.418874556814672e-02 7.737076660379794e-02 1.181250663786670e-02
-6.670303083608864e-02 1.623810056774597e-01 2.473381194632651e-02
-1.069018297979973e-01 2.675266170872205e-01 3.767444144037313e-02
-1.528385714824142e-01 3.847467021992735e-01 4.714136226444410e-02
-1.528385714824142e-01 3.847467021992735e-01 4.714136226444410e-02
-2.039907132052408e-01 5.131302405771003e-01 5.031380798629570e-02
-2.613805777516665e-01 6.562164299902535e-01 4.673099382590706e-02
-3.253788923541647e-01 8.126196991140324e-01 3.643985940604466e-02
-3.963563842452085e-01 9.809544766237366e-01 1.948734434947497e-02
-4.746837806572703e-01 1.159835191194666e+00 -4.079611721046206e-03
        </DataArray>
  </PointData>
  <CellData>
        <DataArray type="Float64" Name="axial_strain_GPs" NumberOfComponents="3" format="ascii">
1.147808460103139e-02 -1.446860363960201e-02 -2.346058422915454e-02
-2.346058422915431e-02 -2.064701040609762e-02 -2.577407775437413e-02
-1.639723226713519e-02 -1.825687686415711e-02 -1.647909912319778e-02
-1.647909912319767e-02 -5.602738329313461e-03 7.462831823815574e-03
1.220420064202776e-02 -8.881371060721399e-03 -1.923506149390475e-02
-1.923506149390508e-02 -1.836727981361763e-02 -1.771606004405191e-02
-1.242524245950583e-02 -9.469352307710399e-03 -1.018862642482710e-02
-1.018862642482687e-02 -3.223995719591644e-03 5.002815020985873e-03
-2.261981366256882e-02 -2.066517928089762e-02 -1.688708438170616e-02
-1.688708438170583e-02 -4.078564916680905e-03 7.135010118512364e-03
        </DataArray>
        <DataArray type="Float64" Name="cross_section_radius" format="ascii">
1.000000000000000e-01
1.000000000000000e-01
1.000000000000000e-01
1.000000000000000e-01
1.000000000000000e-01
1.000000000000000e-01
1.000000000000000e-01
1.000000000000000e-01
1.000000000000000e-01
1.000000000000000e-01
        </DataArray>
        <DataArray type="Float64" Name="curvature_2_GPs" NumberOfComponents="3" format="ascii">
5.690819713356530e-01 3.826292550833350e-01 2.115190869517943e-01
2.238109345811016e-01 1.717033631189023e-01 1.293891664714040e-01
-1.078588606477517e-01 -5.408823104576010e-02 -2.867688012708231e-04
5.052713772156628e-02 2.301774429476999e-02 -4.468906253440403e-03
6.857677309309305e-01 4.531949688437194e-01 2.236619567020327e-01
2.872082031645750e-01 2.269072302424325e-01 1.741764004987305e-01
-5.893831473658392e-02 -2.774172104554783e-02 3.461752651912046e-03
4.242409019092039e-02 1.237745087919822e-02 -1.762376193804208e-02
-2.449503460967319e-01 -1.091618629062795e-01 2.691200141674688e-02
4.328743848659682e-02 3.357760582161589e-02 2.386606477531226e-02
        </DataArray>
        <DataArray type="Float64" Name="curvature_3_GPs" NumberOfComponents="3" format="ascii">
-3.429284051180578e-01 -1.729618337194534e-01 1.404567610119787e-02
-1.231094075128095e-01 -9.113633953497157e-03 1.089445059268265e-01
4.149327248987626e-01 3.536722179418479e-01 2.924389008081423e-01
1.829891131799945e-01 2.616801482352146e-01 3.403791537187872e-01
-2.087088068868471e-01 -1.776568743697391e-01 -1.245258575981798e-01
-8.565804308749418e-02 -9.040467986572645e-04 8.862843274854597e-02
2.516819252381119e-01 2.136498599614992e-01 1.756234476918760e-01
8.990037513221447e-02 2.435691660054257e-01 3.972468554595106e-01
7.258593709167568e-01 4.605663236766734e-01 1.954202090171179e-01
3.160186358067344e-01 2.753847741243252e-01 2.347513212684074e-01
        </DataArray>
        <DataArray type="Float64" Name="element_owner" format="ascii">
2.000000000000000e+00
2.000000000000000e+00
2.000000000000000e+00
2.000000000000000e+00
2.000000000000000e+00
2.000000000000000e+00
2.000000000000000e+00
2.000000000000000e+00
2.000000000000000e+00
2.000000000000000e+00
        </DataArray>
        <DataArray type="Float64" Name="material_axial_force_GPs" NumberOfComponents="3" format="ascii">
3.605946625988235e-03 -4.545445890187621e-03 -7.370359906323645e-03
-7.370359906323575e-03 -6.486449621038830e-03 -8.097165332619387e-03
-5.151342442963741e-03 -5.735567023392944e-03 -5.177061674321615e-03
-5.177061674321581e-03 -1.760152157535712e-03 2.344517763267513e-03
3.834062707993025e-03 -2.790165007816734e-03 -6.042872788059907e-03
-6.042872788060012e-03 -5.770251132888926e-03 -5.565664408494914e-03
-3.903505042985547e-03 -2.974884764415655e-03 -3.200851392640764e-03
-3.200851392640694e-03 -1.012848126787405e-03 1.571680691719789e-03
-7.106224042789624e-03 -6.492157541398396e-03 -5.305234023411902e-03
-5.305234023411797e-03 -1.281318957943380e-03 2.241529537160728e-03
        </DataArray>
        <DataArray type="Float64" Name="material_bending_moment_2_GPs" NumberOfComponents="3" format="ascii">
4.469559351096212e-04 3.005163142045851e-04 1.661267024154445e-04
1.757806969682636e-04 1.348555060427511e-04 1.016220137101674e-04
-8.471215105888548e-05 -4.248079732475684e-05 -2.252276898377924e-07
3.968392116824809e-05 1.807809409466445e-05 -3.509870763847465e-06
5.386007163903884e-04 3.559384961908211e-04 1.756636900156561e-04
2.255727952781385e-04 1.782125218940084e-04 1.367978250588813e-04
-4.629004414785378e-05 -2.178829675865761e-05 2.718854174947967e-06
3.331980251975658e-05 9.721227188064418e-06 -1.384167025829211e-05
-1.923835519479426e-04 -8.573552663963597e-05 2.113663648606253e-05
3.399787468555317e-05 2.637178994358059e-05 1.874436344205479e-05
        </DataArray>
        <DataArray type="Float64" Name="material_bending_moment_3_GPs" NumberOfComponents="3" format="ascii">
-2.693353395565388e-04 -1.358439065411136e-04 1.103144821355624e-05
-9.668990255750867e-05 -7.157831368953295e-06 8.556481486717196e-05
3.258874000689869e-04 2.777735104162294e-04 2.296809756006836e-04
1.437193134132955e-04 2.055231078215096e-04 2.673331621895133e-04
-1.639195136138024e-04 -1.395313828449243e-04 -9.780237985310264e-05
-6.727566972113743e-05 -7.100366952907584e-07 6.960860830550227e-05
1.976705218423471e-04 1.678002076238836e-04 1.379343332667272e-04
7.060758951758289e-05 1.912987756409096e-04 3.119969506933112e-04
5.700886168028481e-04 3.617279447383741e-04 1.534826732527899e-04
2.482004561619763e-04 2.162866958248662e-04 1.843732565793316e-04
        </DataArray>
        <DataArray type="Float64" Name="material_shear_force_2_GPs" NumberOfComponents="3" format="ascii">
1.136241562382313e-03 -4.370599504529349e-04 1.472882289197829e-04
1.472882289197567e-04 -2.263483607075437e-04 -5.949574229537365e-03
4.207045558558778e-04 1.029041697156668e-04 2.092746810476432e-04
2.092746810476192e-04 -1.338834518359033e-04 1.319459115807331e-03
5.953689418086975e-04 -2.298985984676844e-04 -1.815768895291452e-04
-1.815768895291190e-04 -1.991509270255279e-04 -4.635770778689100e-04
1.107333598731529e-03 6.445113776630705e-05 1.369758860695177e-04
1.369758860695232e-04 -2.620634379711708e-04 1.501673261152997e-03
-1.714495287461205e-04 4.445582126956278e-04 -1.525017119248581e-04
-1.525017119248930e-04 6.923477854800816e-05 9.626551335742566e-04
        </DataArray>
        <DataArray type="Float64" Name="material_shear_force_3_GPs" NumberOfComponents="3" format="ascii">
2.458223944015951e-03 -2.484833180692363e-04 -2.706179693587829e-05
-2.706179693588483e-05 -8.006819154097566e-05 -9.353182825300196e-03
-2.841442321096119e-04 9.036875675160174e-05 1.065361822007700e-04
1.065361822007613e-04 -4.678224297850230e-05 2.574144599536139e-06
2.876738137798767e-03 -3.432872326320593e-04 8.154939852418955e-05
8.154939852423969e-05 -1.000244700957716e-04 1.657565800400996e-04
6.589069535128455e-04 5.287714614622839e-05 7.697386702825289e-05
7.697386702824416e-05 -5.120064907022309e-05 5.374311520850925e-05
1.680741896075144e-04 2.278457140910438e-04 6.651189397383284e-05
6.651189397380668e-05 -1.654582156192453e-05 -1.009831539184559e-04
        </DataArray>
        <DataArray type="Float64" Name="material_torque_GPs" NumberOfComponents="3" format="ascii">
-2.478639983355002e-05 -5.663787898582988e-05 -7.946046527049138e-05
-8.280992376683055e-05 -8.779686399040488e-05 -8.629433537244800e-05
6.305263470738966e-07 -7.842395744429842e-07 6.329716484399975e-07
-3.633675800348671e-07 4.490392437876354e-07 -3.622289094361764e-07
-1.224894816760453e-05 -4.411111802765900e-05 -6.845466065396833e-05
-8.177370502239167e-05 -8.408730704546282e-05 -8.240881411985936e-05
2.230124671313334e-07 -2.825771278806173e-07 2.233319456615464e-07
-3.724329817336366e-07 4.590913902277082e-07 -3.702702884931358e-07
1.335677723785603e-06 -1.680714351387406e-06 1.364884314768396e-06
-5.261373793023707e-08 6.540035629586715e-08 -5.270927620096837e-08
        </DataArray>
        <DataArray type="Float64" Name="shear_strain_2_GPs" NumberOfComponents="3" format="ascii">
7.233538447984134e-03 -2.782410061683338e-03 9.376659876733640e-04
9.376659876731974e-04 -1.440978418694117e-03 -3.787616591692106e-02
2.678288385829734e-03 6.551082910006278e-04 1.332283998108488e-03
1.332283998108336e-03 -8.523285263155878e-04 8.399937619535933e-03
3.790236402089808e-03 -1.463579934241233e-03 -1.155954380792579e-03
-1.155954380792412e-03 -1.267834178297844e-03 -2.951223337877340e-03