<?xml version="1.0" ?> 
<!-- 
# vtk DataFile Version 3.0
-->
<VTKFile type="UnstructuredGrid" version="0.1" compressor="vtkZLibDataCompressor" byte_order="LittleEndian">
  <UnstructuredGrid>
    <FieldData>
      <DataArray type="Float64" Name="TIME" NumberOfTuples="1" format="ascii">
3.000000000000000e+00 
      </DataArray>
    </FieldData>

    <Piece NumberOfPoints="60" NumberOfCells="10" >
      <Points>
        <DataArray type="Float64" NumberOfComponents="3" format="ascii">
1.328279232825919e+00 2.706213394843632e-01 -3.005199880139205e-02
1.197763501210632e+00 3.927757568087340e-01 1.029592277352700e-01
1.075073614052779e+00 5.055956416020937e-01 2.472379995167043e-01
9.553711692857261e-01 6.087430417711382e-01 3.988022734959125e-01
8.338177648428380e-01 7.018800052225641e-01 5.536700066258966e-01
7.055749986574805e-01 7.846685798630670e-01 7.078591558596581e-01
7.055749986574805e-01 7.846685798630670e-01 7.078591558596581e-01
5.704683436111186e-01 8.545491296969598e-01 8.624322048594848e-01
4.318723308664911e-01 9.099214107255927e-01 1.020236925100964e+00
2.902721457792967e-01 9.518865588509727e-01 1.179969205256565e+00
1.461529737052334e-01 9.815457099751063e-01 1.340324933998754e+00
0.000000000000000e+00 1.000000000000000e+00 1.500000000000000e+00
1.000000000000000e-01 3.000000000000000e-01 2.500000000000000e+00
3.043934143741019e-01 3.121600994378310e-01 2.610314462456857e+00
5.039572161938772e-01 3.460947086783863e-01 2.724304017004711e+00
6.985334302373949e-01 3.998900825690613e-01 2.839987209191931e+00
8.879640812827236e-01 4.716324759572513e-01 2.955382584566887e+00
1.072091194107932e+00 5.594081436903516e-01 3.068508688677948e+00
1.072091194107932e+00 5.594081436903516e-01 3.068508688677948e+00
1.253286537217083e+00 6.590178963333631e-01 3.177902234343285e+00
1.432452857795168e+00 7.688258479577450e-01 3.283148495648799e+00
1.607228648641652e+00 8.907632086705821e-01 3.383838860044463e+00
1.775252402555997e+00 1.026761188578958e+00 3.479564714980248e+00
1.934162612337667e+00 1.178750997789959e+00 3.569917447906125e+00
1.411969753639634e+00 3.753936316289882e-01 4.979584301468525e+00
1.262558305399179e+00 4.767336371116908e-01 5.111324677731488e+00
1.123148438157965e+00 5.757929767382117e-01 5.252296120430120e+00
9.895300046521435e-01 6.691725793355042e-01 5.400315407478126e+00
8.574928576178671e-01 7.534733737305211e-01 5.553199316789217e+00
7.228268497912894e-01 8.252962887502159e-01 5.708764626277101e+00
7.228268497912894e-01 8.252962887502159e-01 5.708764626277101e+00
5.843281253929680e-01 8.847517955464386e-01 5.866258093397550e+00
4.432781873784801e-01 9.333098156591878e-01 6.025480519929217e+00
2.991949265840242e-01 9.696104534988040e-01 6.185079750272950e+00
1.515962338457980e-01 9.922938134756281e-01 6.343703628829593e+00
0.000000000000000e+00 1.000000000000000e+00 6.500000000000000e+00
1.000000000000000e-01 3.000000000000000e-01 1.750000000000000e+01
3.061641374495032e-01 3.083746262770373e-01 1.761079837858265e+01
5.106884641757684e-01 3.295579172950977e-01 1.772353673261555e+01
7.134086874533991e-01 3.626525720703807e-01 1.783727224064113e+01
9.141605145569994e-01 4.067612896190856e-01 1.795106208120180e+01
1.112779652761173e+00 4.609867689574123e-01 1.806396343284000e+01
1.112779652761173e+00 4.609867689574123e-01 1.806396343284000e+01
1.311235983917936e+00 5.217898955466879e-01 1.817509048051260e+01
1.509820731001684e+00 5.891628084658027e-01 1.828390609548509e+01
1.705851612970586e+00 6.675050871573004e-01 1.838999048576285e+01
1.896646348782812e+00 7.612163110637242e-01 1.849292385935127e+01
2.079522657396530e+00 8.746960596276183e-01 1.859228642425574e+01
1.000000000000000e-01 3.000000000000000e-01 2.250000000000000e+01
2.986944550343939e-01 3.205567985000425e-01 2.261240355837051e+01
4.858112544318648e-01 3.773707666037986e-01 2.273181250663784e+01
6.632969691638971e-01 4.623810056774610e-01 2.285473381194635e+01
8.330981702019755e-01 5.675266170872225e-01 2.297767444144042e+01
9.971614285175842e-01 6.847467021992757e-01 2.309714136226444e+01
9.971614285175842e-01 6.847467021992757e-01 2.309714136226444e+01
1.156009286794784e+00 8.131302405771024e-01 2.321031380798625e+01
1.308619422248346e+00 9.562164299902555e-01 2.331673099382588e+01
1.454621107645824e+00 1.112619699114034e+00 2.341643985940607e+01
1.593643615754768e+00 1.280954476623738e+00 2.350948734434953e+01
1.725316219342731e+00 1.459835191194666e+00 2.359592038827896e+01
        </DataArray>
      </Points>

      <Cells>
        <DataArray type="Int32" Name="connectivity" format="ascii">
0 1 2 3 4 5 6 7 8 9 10 11 12 13 14 15 16 17 18 19 20 21 22 23 24 25 26 27 28 29 30 31 32 33 34 35 36 37 38 39 40 41 42 43 44 45 46 47 48 49 50 51 52 53 54 55 56 57 58 59 
        </DataArray>
        <DataArray type="Int32" Name="offsets" format="ascii">
6 12 18 24 30 36 42 48 54 60 
        </DataArray>
        <DataArray type="UInt8" Name="types" format="ascii">
4 4 4 4 4 4 4 4 4 4 
        </DataArray>
      </Cells>

  <PointData>
        <DataArray type="Float64" Name="base_vector_1" NumberOfComponents="3" format="ascii">
-5.924922927245238e-01 5.679553918804431e-01 5.712963818334312e-01
-5.638326860923111e-01 5.291955498149572e-01 6.340700057170138e-01
-5.491053327481654e-01 4.910557721235971e-01 6.762747682795980e-01
-5.518512788479977e-01 4.516840524737670e-01 7.010290170704090e-01
-5.735824974318369e-01 4.081998204978514e-01 7.101943573314126e-01
-6.138658233654914e-01 3.569107812495629e-01 7.041189140561651e-01
-6.138658233654919e-01 3.569107812495630e-01 7.041189140561653e-01
-6.264321707289806e-01 2.934176324713161e-01 7.221418340123388e-01
-6.426909460493830e-01 2.270805177159202e-01 7.316985624832256e-01
-6.622926138360030e-01 1.567761848974206e-01 7.326593488841074e-01
-6.842886935714421e-01 8.140346788365743e-02 7.246533373046748e-01
-7.071067811881098e-01 -1.051825293529873e-12 7.071067811849854e-01
8.858315352803766e-01 -9.478847550807950e-18 4.640069946701351e-01
8.691674510196766e-01 9.866814748968523e-02 4.845745956598549e-01
8.480194436962254e-01 1.889735668874421e-01 4.951282804798992e-01
8.246842175001688e-01 2.704764534751307e-01 4.967277217164849e-01
8.011190406327934e-01 3.430694764870986e-01 4.904198375254216e-01
7.789425184449983e-01 4.068784413199458e-01 4.771776262018316e-01
7.789425184449983e-01 4.068784413199459e-01 4.771776262018316e-01
7.694564840545013e-01 4.456343933819578e-01 4.575442127069028e-01
7.527048583515032e-01 4.919229737849473e-01 4.375467793009308e-01
7.276463000106738e-01 5.449411318773032e-01 4.166173602588594e-01
6.930969405307430e-01 6.035750712396951e-01 3.940986734371492e-01
6.477951425937902e-01 6.663383238278242e-01 3.692623612422700e-01
-6.797572589891261e-01 4.587213631672107e-01 5.722803332507646e-01
-6.394717206643779e-01 4.534865032859477e-01 6.208267953366895e-01
-6.145312117466339e-01 4.370961865921745e-01 6.567330610345371e-01
-6.057618411118169e-01 4.073290337938326e-01 6.834732255775675e-01
-6.122252853069192e-01 3.615659468445109e-01 7.031715765823402e-01
-6.313283864925272e-01 2.969107056123113e-01 7.164275966917674e-01
-6.313283864925276e-01 2.969107056123114e-01 7.164275966917676e-01
-6.406391910643006e-01 2.480063717234653e-01 7.266871861103933e-01
-6.538551593817243e-01 1.948732130065311e-01 7.310936064570739e-01
-6.702098333463207e-01 1.364455086810881e-01 7.295213516043637e-01
-6.885064947383372e-01 7.175195018386399e-02 7.216719922152600e-01
-7.071067811881107e-01 -1.051769782378642e-12 7.071067811849856e-01
8.858315352803766e-01 5.367445162999157e-17 4.640069946701352e-01
8.775576550217292e-01 5.992236869268028e-02 4.757119631069017e-01
8.682918333177441e-01 1.149985025484971e-01 4.825397772259964e-01
8.588459755005027e-01 1.651310210439716e-01 4.848869314134641e-01
8.499207731860084e-01 2.102960713936168e-01 4.831254926655273e-01
8.421076653043309e-01 2.505216641353993e-01 4.775914319107067e-01
8.421076653043309e-01 2.505216641353993e-01 4.775914319107068e-01
8.425553005276845e-01 2.699567875813949e-01 4.660728466575124e-01
8.359117706355133e-01 3.072184585748546e-01 4.548278030462643e-01
8.204051728447896e-01 3.616176311787376e-01 4.429086149423935e-01
7.934264314789383e-01 4.318646258231149e-01 4.289142604218921e-01
7.516715837021397e-01 5.157950815496321e-01 4.110295173146642e-01
8.858315352803766e-01 8.376190540675982e-17 4.640069946701353e-01
8.435986338280490e-01 1.731476268509677e-01 5.082924791095452e-01
7.912203065239301e-01 3.100284172245258e-01 5.271174509133933e-01
7.429577505103737e-01 4.112579585136488e-01 5.280915380080913e-01
7.086334907023628e-01 4.796500712172156e-01 5.174692116795979e-01
6.942351183623006e-01 5.181864973621512e-01 4.995201241031517e-01
6.942351183623007e-01 5.181864973621509e-01 4.995201241031517e-01
6.652648743915425e-01 5.812045240061936e-01 4.686405319384349e-01
6.344624349814055e-01 6.370307160112212e-01 4.377776666936045e-01
6.026835043159176e-01 6.860407023731534e-01 4.075791313510001e-01
5.706862497909898e-01 7.286832121806073e-01 3.786000271865390e-01
5.391327653802425e-01 7.654525232232868e-01 3.513094020725264e-01
        </DataArray>
        <DataArray type="Float64" Name="base_vector_2" NumberOfComponents="3" format="ascii">
-1.375532312474363e-01 6.274354307545473e-01 -7.664227872442499e-01
-2.647269197144774e-01 6.114301915969219e-01 -7.457028756698180e-01
-3.733929594867271e-01 5.797862914082323e-01 -7.241723234844256e-01
-4.631357924819860e-01 5.330757885516291e-01 -7.080504511559478e-01
-5.331190980263689e-01 4.722229540026616e-01 -7.019896787222379e-01
-5.816030260999205e-01 3.986216847571672e-01 -7.091111848453474e-01
-5.816030260999207e-01 3.986216847571670e-01 -7.091111848453477e-01
-6.419153346793890e-01 3.313657835203729e-01 -6.914777079670590e-01
-6.856320835174510e-01 2.556672842683956e-01 -6.815738300480312e-01
-7.118056390170300e-01 1.735910042383888e-01 -6.805871696638609e-01
-7.193551259472970e-01 8.747775338383490e-02 -6.891123605307519e-01
-7.071067811849853e-01 -4.358735594678365e-13 -7.071067811881099e-01
1.320903664386672e-17 1.000000000000000e+00 -4.789008968675101e-18
-8.690046028378602e-02 9.951193025844836e-01 -4.675343437906214e-02
-1.653067390140063e-01 9.819735393197132e-01 -9.166051555861346e-02
-2.353362517159861e-01 9.627025222583976e-01 -1.334942031160509e-01
-2.973515015846701e-01 9.392708867990469e-01 -1.713250878215855e-01
-3.518668187245669e-01 9.134416315589639e-01 -2.044850302969654e-01
-3.518668187245671e-01 9.134416315589639e-01 -2.044850302969654e-01
-3.849272976647610e-01 8.952088804846180e-01 -2.245707813006432e-01
-4.248620237238196e-01 8.706384105154599e-01 -2.479536628735579e-01
-4.708699698293559e-01 8.384672545422719e-01 -2.743248704970926e-01
-5.218469669890197e-01 7.972930933913289e-01 -3.033141379409252e-01
-5.763325297766440e-01 7.456396402350888e-01 -3.344582814512761e-01
-1.444544482374605e-01 6.812530051296675e-01 -7.176539941965127e-01
-2.533080460725340e-01 6.381454773192818e-01 -7.270525315077728e-01
-3.544980920613051e-01 5.906884617709725e-01 -7.248573955306913e-01
-4.459477654746598e-01 5.375904382692172e-01 -7.156305689038645e-01
-5.259647202775812e-01 4.777929239334027e-01 -7.036156869076297e-01
-5.929020630106843e-01 4.106878785123287e-01 -6.926778545043270e-01
-5.929020630106843e-01 4.106878785123287e-01 -6.926778545043271e-01
-6.456984515234914e-01 3.381400936503468e-01 -6.846420866162848e-01
-6.845387028663614e-01 2.592463122053171e-01 -6.813208597173454e-01
-7.084282910690354e-01 1.754065491729289e-01 -6.836387195882425e-01
-7.163097226745538e-01 8.831397622870063e-02 -6.921712380651056e-01
-7.071067811849856e-01 -4.363176486776865e-13 -7.071067811881100e-01
-4.973702980954065e-17 1.000000000000000e+00 -2.072344224111590e-17
-5.291550451394915e-02 9.982029184422492e-01 -2.812264204179078e-02
-1.011784349259011e-01 9.933647498071417e-01 -5.467538885586326e-02
-1.448801681253696e-01 9.862692402009438e-01 -7.926362796022932e-02
-1.841564984334833e-01 9.776341849014718e-01 -1.015764962811448e-01
-2.191678011121394e-01 9.681078698617103e-01 -1.213780345346371e-01
-2.191678011121394e-01 9.681078698617103e-01 -1.213780345346371e-01
-2.360592807666302e-01 9.628723828056556e-01 -1.309686618779487e-01
-2.687766361893338e-01 9.516365837659080e-01 -1.488184540878530e-01
-3.166834600023865e-01 9.323217071862263e-01 -1.746076185917368e-01
-3.785291056023987e-01 9.019346595882700e-01 -2.079172576897831e-01
-4.522083211446289e-01 8.567117677031930e-01 -2.480979269692238e-01
-6.552542539625031e-17 1.000000000000000e+00 -5.542463265318291e-17
-1.512046743286537e-01 9.848803345392434e-01 -8.454509506194818e-02
-2.670278952276119e-01 9.506006711738053e-01 -1.582860294979392e-01
-3.505507008293534e-01 9.111942616110317e-01 -2.164237134770032e-01
-4.060795188704883e-01 8.770084091421765e-01 -2.568183689844274e-01
-4.373715714633933e-01 8.549083551297005e-01 -2.789942881226634e-01
-4.373715714633932e-01 8.549083551297006e-01 -2.789942881226633e-01
-4.885267669456073e-01 8.135335759992873e-01 -3.154436854645916e-01
-5.342114086586283e-01 7.707197658818273e-01 -3.472883720167224e-01
-5.746213178060533e-01 7.275161228763201e-01 -3.748741549878329e-01
-6.100220477560934e-01 6.848420160985624e-01 -3.985781156028501e-01
-6.407274382448814e-01 6.434920027746949e-01 -4.187915856905007e-01
        </DataArray>
        <DataArray type="Float64" Name="base_vector_3" NumberOfComponents="3" format="ascii">
-7.937455458995827e-01 -5.326832577318232e-01 -2.936265575468022e-01
-7.823121883700991e-01 -5.883070549124806e-01 -2.046520194569059e-01
-7.477038393329738e-01 -6.501631218080476e-01 -1.350069764402724e-01
-6.935166932063792e-01 -7.154101763330836e-01 -8.498750404120803e-02
-6.219221381808234e-01 -7.812671682968138e-01 -5.323970118314558e-02
-5.337664947664117e-01 -8.448168124920242e-01 -3.711983830236498e-02
-5.337664947664119e-01 -8.448168124920246e-01 -3.711983830236520e-02
-4.421848466187243e-01 -8.967177986785234e-01 -1.922890932731769e-02
-3.418435225621047e-01 -9.397173395381684e-01 -8.621360312544013e-03
-2.338829320874698e-01 -9.722589115541792e-01 -3.373867461898383e-03
-1.194871818382075e-01 -9.928348896364545e-01 -1.302035687593683e-03
1.051991826983567e-12 -1.000000000000000e+00 -4.356515148629114e-13
-4.640069946701351e-01 1.037134056280124e-17 8.858315352803766e-01
-4.868226084421555e-01 -1.473192019005726e-03 8.734996151200359e-01
-5.035242845679834e-01 -4.118142026819815e-03 8.639712586403250e-01
-5.143080691904456e-01 -6.807477714609975e-03 8.575784909923760e-01
-5.194134838844048e-01 -8.575285103136335e-03 8.544800157080710e-01
-5.190744598217256e-01 -8.620888814359073e-03 8.546855476939073e-01
-5.190744598217256e-01 -8.620888814359046e-03 8.546855476939073e-01
-5.096741063257869e-01 -3.323813558453362e-03 8.603611204630526e-01
-5.029191356583520e-01 7.389165633448352e-04 8.643331516209294e-01
-4.988109196816747e-01 3.438873162641687e-03 8.667040097736327e-01
-4.972850028618245e-01 4.566903599002553e-03 8.675752240124384e-01
-4.981990248416236e-01 3.842539318348909e-03 8.670541889284903e-01
-7.190709153039087e-01 -5.704989517745088e-01 -3.968223340339927e-01
-7.258863218613880e-01 -6.221899558128773e-01 -2.932042063479228e-01
-7.047570450262336e-01 -6.782581107493088e-01 -2.080467319826729e-01
-6.589257790684619e-01 -7.382950486831763e-01 -1.440043012167576e-01
-5.903738756535449e-01 -8.006147562477238e-01 -1.023459770787827e-01
-4.998916003359298e-01 -8.620785923196576e-01 -8.323994580573024e-02
-4.998916003359301e-01 -8.620785923196577e-01 -8.323994580573069e-02
-4.155176729967628e-01 -9.078293433518754e-01 -5.648846587276424e-02
-3.223045063723730e-01 -9.459470283585939e-01 -3.611128233124106e-02
-2.212422556811980e-01 -9.749949567397795e-01 -2.089733555005391e-02
-1.133983593577688e-01 -9.935050574846057e-01 -9.408126672066253e-03
1.051880804681105e-12 -1.000000000000000e+00 -4.360956040727615e-13
-4.640069946701352e-01 -4.720851069001975e-18 8.858315352803766e-01
-4.765422452362413e-01 -4.932987279134566e-04 8.791514347150706e-01
-4.856255929207769e-01 -1.348425822201234e-03 8.741658682699445e-01
-4.913179492452465e-01 -2.175252267765174e-03 8.709775777980837e-01
-4.936811353410379e-01 -2.638724776438735e-03 8.696389904666982e-01
-4.927678510123796e-01 -2.459290680675935e-03 8.701573403115033e-01
-4.927678510123797e-01 -2.459290680675949e-03 8.701573403115032e-01
-4.841245516565388e-01 3.275193014554839e-04 8.749990349791608e-01
-4.785505527650631e-01 2.152010511657282e-03 8.780573656083128e-01
-4.760745094314836e-01 2.987160865949107e-03 8.793998739706148e-01
-4.766447461605401e-01 2.610516434078378e-03 8.790921289384303e-01
-4.801015148302216e-01 6.171937124228449e-04 8.772127190879347e-01
-4.640069946701353e-01 1.869263172292366e-17 8.858315352803766e-01
-5.152460494410561e-01 -5.534072076340782e-03 8.570244352301973e-01
-5.501513698196978e-01 -1.551594267733210e-02 8.349207901402048e-01
-5.701999536168121e-01 -2.432918342881150e-02 8.211456044631018e-01
-5.770077990884500e-01 -2.814355121921969e-02 8.162536004918288e-01
-5.716150005975390e-01 -2.478826901934159e-02 8.201474457747828e-01
-5.716150005975389e-01 -2.478826901934161e-02 8.201474457747828e-01
-5.645921048672905e-01 -1.908984013934642e-02 8.251492792973746e-01
-5.586372610705715e-01 -1.352439785322002e-02 8.293018155088520e-01
-5.536993179951732e-01 -8.273188161622674e-03 8.326755788476821e-01
-5.497183874957781e-01 -3.491313822695130e-03 8.353427471264911e-01
-5.466298667047056e-01 6.906924900255962e-04 8.373740572589290e-01
        </DataArray>
        <DataArray type="Float64" Name="displacement" NumberOfComponents="3" format="ascii">
3.282792328259185e-01 2.706213394843632e-01 4.074432799350795e-02
2.104618745931887e-01 2.365191784263026e-01 1.671414965263068e-02
1.248844629539761e-01 1.969416249177303e-01 3.894174853278365e-03
6.523462889558540e-02 1.551091978573587e-01 -1.659411649320153e-03
2.520000340531880e-02 1.142424161439001e-01 -3.890425099936534e-03
-1.531782529519465e-03 7.756179867606705e-02 -6.742680743341944e-03
-1.531782529519465e-03 7.756179867606705e-02 -6.742680743341944e-03
-1.716924546674570e-02 4.593136826050281e-02 -9.211036620550672e-03
-2.176151304641782e-02 1.978487033682852e-02 -8.505062959571985e-03
-1.838187090452487e-02 1.697407753329827e-03 -5.890643285654473e-03
-1.010360467705587e-02 -5.755916641708048e-03 -2.633661124047837e-03
0.000000000000000e+00 0.000000000000000e+00 0.000000000000000e+00
0.000000000000000e+00 0.000000000000000e+00 0.000000000000000e+00
-5.606585625923255e-03 1.216009943783103e-02 3.144624569051402e-04
-1.604278380613533e-02 4.609470867838633e-02 4.304017004735705e-03
-3.146656976259243e-02 9.989008256906129e-02 9.987209191907098e-03
-5.203591871725100e-02 1.716324759572513e-01 1.538258456683872e-02
-7.790880589206783e-02 2.594081436903516e-01 1.850868867794864e-02
-7.790880589206783e-02 2.594081436903516e-01 1.850868867794864e-02
-1.067134627829422e-01 3.590178963333631e-01 1.790223434333305e-02
-1.375471422048440e-01 4.688258479577450e-01 1.314849564882303e-02
-1.727713513583355e-01 5.907632086705821e-01 3.838860044438785e-03
-2.147475974439776e-01 7.267611885789584e-01 -1.043528501979996e-02
-2.658373876623332e-01 8.787509977899586e-01 -3.008255209387523e-02
4.119697536396338e-01 3.753936316289882e-01 5.038062825852485e-02
2.752566787818276e-01 3.204770587296841e-01 2.507959964515827e-02
1.729592870594360e-01 2.671389600541552e-01 8.952295764768969e-03
9.939346426241313e-02 2.155387354217011e-01 -1.462776670804189e-04
4.887509618071273e-02 1.658357846516213e-01 -4.361114934823718e-03
1.572006860428943e-02 1.181895075632159e-01 -5.837210322899189e-03
1.572006860428943e-02 1.181895075632159e-01 -5.837210322899189e-03
-3.309463684806779e-03 7.613403410984299e-02 -5.385148079944280e-03
-1.035565653441994e-02 4.317327527026771e-02 -3.261468129449163e-03
-9.459090099913858e-03 1.942130240105722e-02 -7.800982681409607e-04
-4.660344536652539e-03 4.992186858779113e-03 7.450337072505420e-04
0.000000000000000e+00 0.000000000000000e+00 0.000000000000000e+00
0.000000000000000e+00 0.000000000000000e+00 0.000000000000000e+00
-3.835862550522040e-03 8.374626277037334e-03 7.983785827043732e-04
-9.311535824244155e-03 2.955791729509771e-02 3.536732615579297e-03
-1.659131254658819e-02 6.265257207038066e-02 7.272240641103878e-03
-2.583948544297543e-02 1.067612896190857e-01 1.106208120175012e-02
-3.722034723882728e-02 1.609867689574123e-01 1.396343284000423e-02
-3.722034723882728e-02 1.609867689574123e-01 1.396343284000423e-02
-4.876401608208902e-02 2.217898955466879e-01 1.509048051265083e-02
-6.017926899832804e-02 2.891628084658027e-01 1.390609548511534e-02
-7.414838702940107e-02 3.675050871573004e-01 9.990485762827461e-03
-9.335365121716310e-02 4.612163110637242e-01 2.923859351220415e-03
-1.204773426034706e-01 5.746960596276183e-01 -7.713575744261902e-03
0.000000000000000e+00 0.000000000000000e+00 0.000000000000000e+00
-1.130554496563130e-02 2.055679850004255e-02 2.403558370563275e-03
-3.418874556814760e-02 7.737076660379866e-02 1.181250663786670e-02
-6.670303083609019e-02 1.623810056774610e-01 2.473381194632651e-02
-1.069018297979992e-01 2.675266170872225e-01 3.767444144037313e-02
-1.528385714824158e-01 3.847467021992757e-01 4.714136226444410e-02
-1.528385714824158e-01 3.847467021992757e-01 4.714136226444410e-02
-2.039907132052416e-01 5.131302405771023e-01 5.031380798629570e-02
-2.613805777516665e-01 6.562164299902555e-01 4.673099382590351e-02
-3.253788923541638e-01 8.126196991140340e-01 3.643985940604466e-02
-3.963563842452069e-01 9.809544766237379e-01 1.948734434947852e-02
-4.746837806572688e-01 1.159835191194666e+00 -4.079611721042653e-03
        </DataArray>
  </PointData>
  <CellData>
        <DataArray type="Float64" Name="axial_strain_GPs" NumberOfComponents="3" format="ascii">
1.148055113661539e-02 -1.446909606895774e-02 -2.346176258865507e-02
-2.346176258865462e-02 -2.064555549096025e-02 -2.577008397558300e-02
-1.639723226713530e-02 -1.825687686415733e-02 -1.647909912319789e-02
-1.647909912319778e-02 -5.602738329313905e-03 7.462831823815574e-03
1.220563917653039e-02 -8.880524636562082e-03 -1.923426031167663e-02
-1.923426031167619e-02 -1.836615696243582e-02 -1.771457565658330e-02
-1.242524245950727e-02 -9.469352307711065e-03 -1.018862642482665e-02
-1.018862642482654e-02 -3.223995719589867e-03 5.002815020986318e-03
-2.261981366256904e-02 -2.066517928089795e-02 -1.688708438170650e-02
-1.688708438170661e-02 -4.078564916676020e-03 7.135010118512142e-03
        </DataArray>
        <DataArray type="Float64" Name="cross_section_radius" format="ascii">
1.000000000000000e-01
1.000000000000000e-01
1.000000000000000e-01
1.000000000000000e-01
1.000000000000000e-01
1.000000000000000e-01
1.000000000000000e-01
1.000000000000000e-01
1.000000000000000e-01
1.000000000000000e-01
        </DataArray>
        <DataArray type="Float64" Name="curvature_2_GPs" NumberOfComponents="3" format="ascii">
5.689830296262036e-01 3.825663543031946e-01 2.116636736498429e-01
2.238316542733853e-01 1.716738613823216e-01 1.293818888618013e-01
-1.078588606477503e-01 -5.408823104576103e-02 -2.867688012740835e-04
5.052713772156969e-02 2.301774429477164e-02 -4.468906253440512e-03
6.857142122692906e-01 4.531301536381330e-01 2.237852748532430e-01
2.871826584450515e-01 2.268681330008205e-01 1.742210094152199e-01
-5.893831473657928e-02 -2.774172104555202e-02 3.461752651899032e-03
4.242409019095792e-02 1.237745087918202e-02 -1.762376193811198e-02
-2.449503460967424e-01 -1.091618629062747e-01 2.691200141676697e-02
4.328743848660022e-02 3.357760582160502e-02 2.386606477528709e-02
        </DataArray>
        <DataArray type="Float64" Name="curvature_3_GPs" NumberOfComponents="3" format="ascii">
-3.430205043980621e-01 -1.729669188545429e-01 1.404036100951417e-02
-1.230601770603581e-01 -9.098999022052207e-03 1.089214972340409e-01
4.149327248987610e-01 3.536722179418477e-01 2.924389008081438e-01
1.829891131799962e-01 2.616801482352148e-01 3.403791537187860e-01
-2.087555721871131e-01 -1.776549954710310e-01 -1.245619962766315e-01
-8.562119216137032e-02 -8.952781498627840e-04 8.860562414612383e-02
2.516819252381118e-01 2.136498599614985e-01 1.756234476918746e-01
8.990037513222275e-02 2.435691660054203e-01 3.972468554594913e-01
7.258593709167649e-01 4.605663236766737e-01 1.954202090171104e-01
3.160186358067322e-01 2.753847741243201e-01 2.347513212683996e-01
        </DataArray>
        <DataArray type="Float64" Name="element_owner" format="ascii">
2.000000000000000e+00
2.000000000000000e+00
2.000000000000000e+00
2.000000000000000e+00
2.000000000000000e+00
2.000000000000000e+00
2.000000000000000e+00
2.000000000000000e+00
2.000000000000000e+00
2.000000000000000e+00
        </DataArray>
        <DataArray type="Float64" Name="material_axial_force_GPs" NumberOfComponents="3" format="ascii">
3.606721510995286e-03 -4.545600591432260e-03 -7.370730098878660e-03
-7.370730098878521e-03 -6.485992545968115e-03 -8.095910650008361e-03
-5.151342442963776e-03 -5.735567023393014e-03 -5.177061674321650e-03
-5.177061674321615e-03 -1.760152157535852e-03 2.344517763267513e-03
3.834514636935565e-03 -2.789899095824660e-03 -6.042621089239703e-03
-6.042621089239563e-03 -5.769898378786540e-03 -5.565198074418267e-03
-3.903505042986001e-03 -2.974884764415864e-03 -3.200851392640625e-03
-3.200851392640590e-03 -1.012848126786847e-03 1.571680691719928e-03
-7.106224042789694e-03 -6.492157541398500e-03 -5.305234023412007e-03
-5.305234023412041e-03 -1.281318957941845e-03 2.241529537160658e-03
        </DataArray>
        <DataArray type="Float64" Name="material_bending_moment_2_GPs" NumberOfComponents="3" format="ascii">
4.468782264727363e-04 3.004669120473866e-04 1.662402605425435e-04
1.757969701765295e-04 1.348323354330235e-04 1.016162978889515e-04
-8.471215105888438e-05 -4.248079732475757e-05 -2.252276898403531e-07
3.968392116825077e-05 1.807809409466574e-05 -3.509870763847551e-06
5.385586829318290e-04 3.558875904473933e-04 1.757605438651303e-04
2.255527325023402e-04 1.781818149922525e-04 1.368328608199633e-04
-4.629004414785014e-05 -2.178829675866090e-05 2.718854174937746e-06
3.331980251978606e-05 9.721227188051694e-06 -1.384167025834701e-05
-1.923835519479508e-04 -8.573552663963222e-05 2.113663648607831e-05
3.399787468555584e-05 2.637178994357206e-05 1.874436344203502e-05
        </DataArray>
        <DataArray type="Float64" Name="material_bending_moment_3_GPs" NumberOfComponents="3" format="ascii">
-2.694076741619044e-04 -1.358479003968735e-04 1.102727375030957e-05
-9.665123705057008e-05 -7.146337120674983e-06 8.554674388211602e-05
3.258874000689856e-04 2.777735104162293e-04 2.296809756006847e-04
1.437193134132969e-04 2.055231078215098e-04 2.673331621895123e-04
-1.639562429947421e-04 -1.395299071613298e-04 -9.783076310478617e-05
-6.724672707144026e-05 -7.031498146320962e-07 6.959069447105026e-05
1.976705218423470e-04 1.678002076238830e-04 1.379343332667262e-04
7.060758951758939e-05 1.912987756409053e-04 3.119969506932961e-04
5.700886168028544e-04 3.617279447383743e-04 1.534826732527840e-04
2.482004561619746e-04 2.162866958248622e-04 1.843732565793254e-04
        </DataArray>
        <DataArray type="Float64" Name="material_shear_force_2_GPs" NumberOfComponents="3" format="ascii">
1.136900227558247e-03 -4.370651256530086e-04 1.472374778472748e-04
1.472374778472573e-04 -2.262253220263190e-04 -5.948958586574534e-03
4.207045558558566e-04 1.029041697156832e-04 2.092746810476934e-04
2.092746810476759e-04 -1.338834518358771e-04 1.319459115807381e-03
5.957120474984108e-04 -2.298769080092668e-04 -1.817145875398270e-04
-1.817145875398357e-04 -1.990464982487006e-04 -4.633306595573919e-04
1.107333598731434e-03 6.445113776633429e-05 1.369758860695057e-04
1.369758860695003e-04 -2.620634379712470e-04 1.501673261152893e-03
-1.714495287462044e-04 4.445582126956735e-04 -1.525017119249148e-04
-1.525017119248930e-04 6.923477854724083e-05 9.626551335743089e-04
        </DataArray>
        <DataArray type="Float64" Name="material_shear_force_3_GPs" NumberOfComponents="3" format="ascii">
2.458343052550223e-03 -2.482193769936822e-04 -2.726972585993835e-05
-2.726972585996179e-05 -8.008875638793449e-05 -9.351918741854197e-03
-2.841442321096119e-04 9.036875675149710e-05 1.065361822008223e-04
1.065361822008310e-04 -4.678224297844127e-05 2.574144599553578e-06
2.877086183912264e-03 -3.430740950950115e-04 8.133142566983309e-05
8.133142566980147e-05 -9.995394331619371e-05 1.667487149633078e-04
6.589069535126101e-04 5.287714614619351e-05 7.697386702838368e-05
7.697386702834880e-05 -5.120064907000510e-05 5.374311520874468e-05
1.680741896074446e-04 2.278457140909828e-04 6.651189397378924e-05
6.651189397379796e-05 -1.654582156015444e-05 -1.009831539183076e-04
        </DataArray>
        <DataArray type="Float64" Name="material_torque_GPs" NumberOfComponents="3" format="ascii">
-2.479347739683115e-05 -5.663957717093595e-05 -7.948331323767677e-05
-8.282697797318483e-05 -8.779180647612155e-05 -8.630776945034019e-05
6.305263470739137e-07 -7.842395744430256e-07 6.329716484397405e-07
-3.633675800350378e-07 4.490392437875618e-07 -3.622289094362468e-07
-1.225163901893302e-05 -4.411064129002496e-05 -6.847248091227252e-05
-8.178888530002289e-05 -8.408201967258527e-05 -8.242141043182968e-05
2.230124671312547e-07 -2.825771278805529e-07 2.233319456613832e-07
-3.724329817341776e-07 4.590913902281498e-07 -3.702702884935626e-07
1.335677723786066e-06 -1.680714351387656e-06 1.364884314768789e-06
-5.261373793058517e-08 6.540035629601449e-08 -5.270927620108877e-08
        </DataArray>
        <DataArray type="Float64" Name="shear_strain_2_GPs" NumberOfComponents="3" format="ascii">
7.237731640727829e-03 -2.782443008030266e-03 9.373428963110886e-04
9.373428963109776e-04 -1.440195130121780e-03 -3.787224661209249e-02
2.678288385829598e-03 6.551082910007319e-04 1.332283998108807e-03
1.332283998108696e-03 -8.523285263154212e-04 8.399937619536252e-03
3.792420680750641e-03 -1.463441848494229e-03 -1.156830993554736e-03
-1.156830993554792e-03 -1.267169364056520e-03 -2.949654590183481e-03