<?xml version="1.0" ?> 
<!-- 
# vtk DataFile Version 3.0
-->
<VTKFile type="UnstructuredGrid" version="0.1" compressor="vtkZLibDataCompressor" byte_order="LittleEndian">
  <UnstructuredGrid>
    <FieldData>
      <DataArray type="Float64" Name="TIME" NumberOfTuples="1" format="ascii">
3.000000000000000e+00 
      </DataArray>
    </FieldData>

    <Piece NumberOfPoints="0" NumberOfCells="0" >
      <Points>
        <DataArray type="Float64" NumberOfComponents="3" format="ascii">
        </DataArray>
      </Points>

      <Cells>
        <DataArray type="Int32" Name="connectivity" format="ascii">

        </DataArray>
        <DataArray type="Int32" Name="offsets" format="ascii">

        </DataArray>
        <DataArray type="UInt8" Name="types" format="ascii">

        </DataArray>
      </Cells>

  <PointData>
        <DataArray type="Float64" Name="base_vector_1" NumberOfComponents="3" format="ascii">
        </DataArray>
        <DataArray type="Float64" Name="base_vector_2" NumberOfComponents="3" format="ascii">
        </DataArray>
        <DataArray type="Float64" Name="base_vector_3" NumberOfComponents="3" format="ascii">
        </DataArray>
        <DataArray type="Float64" Name="displacement" NumberOfComponents="3" format="ascii">
        </DataArray>
  </PointData>
  <CellData>
        <DataArray type="Float64" Name="axial_strain_GPs" NumberOfComponents="3" format="ascii">
        </DataArray>
        <DataArray type="Float64" Name="cross_section_radius" format="ascii">
        </DataArray>
        <DataArray type="Float64" Name="curvature_2_GPs" NumberOfComponents="3" format="ascii">
        </DataArray>
        <DataArray type="Float64" Name="curvature_3_GPs" NumberOfComponents="3" format="ascii">
        </DataArray>
        <DataArray type="Float64" Name="element_owner" format="ascii">
        </DataArray>
        <DataArray type="Float64" Name="material_axial_force_GPs" NumberOfComponents="3" format="ascii">
        </DataArray>
        <DataArray type="Float64" Name="material_bending_moment_2_GPs" NumberOfComponents="3" format="ascii">
        </DataArray>
        <DataArray type="Float64" Name="material_bending_moment_3_GPs" NumberOfComponents="3" format="ascii">
        </DataArray>
        <DataArray type="Float64" Name="material_shear_force_2_GPs" NumberOfComponents="3" format="ascii">
        </DataArray>
        <DataArray type="Float64" Name="material_shear_force_3_GPs" NumberOfComponents="3" format="ascii">
        </DataArray>
        <DataArray type="Float64" Name="material_torque_GPs" NumberOfComponents="3" format="ascii">
        </DataArray>
        <DataArray type="Float64" Name="shear_strain_2_GPs" NumberOfComponents="3" format="ascii">
        </DataArray>
        <DataArray type="Float64" Name="shear_strain_3_GPs" NumberOfComponents="3" format="ascii">
        </DataArray>
        <DataArray type="Float64" Name="twist_GPs" NumberOfComponents="3" format="ascii">
        </DataArray>
      </CellData>

    </Piece>
  </UnstructuredGrid>
</VTKFile>
