<?xml version="1.0" ?> 
<!-- 
# vtk DataFile Version 3.0
-->
<VTKFile type="UnstructuredGrid" version="0.1" compressor="vtkZLibDataCompressor" byte_order="LittleEndian">
  <UnstructuredGrid>
    <FieldData>
      <DataArray type="Float64" Name="TIME" NumberOfTuples="1" format="ascii">
0.000000000000000e+00 
      </DataArray>
    </FieldData>

    <Piece NumberOfPoints="48" NumberOfCells="6" >
      <Points>
        <DataArray type="Float64" NumberOfComponents="3" format="ascii">
-1.000000000000000e+00 -1.000000000000000e+00 4.500000000000000e+00
-1.000000000000000e+00 -1.000000000000000e+00 2.700000000000000e+00
-1.000000000000000e+00 1.000000000000000e+00 2.700000000000000e+00
-1.000000000000000e+00 1.000000000000000e+00 4.500000000000000e+00
1.000000000000000e+00 -1.000000000000000e+00 4.500000000000000e+00
1.000000000000000e+00 -1.000000000000000e+00 2.700000000000000e+00
1.000000000000000e+00 1.000000000000000e+00 2.700000000000000e+00
1.000000000000000e+00 1.000000000000000e+00 4.500000000000000e+00
-1.000000000000000e+00 -1.000000000000000e+00 2.700000000000000e+00
-1.000000000000000e+00 -1.000000000000000e+00 8.999999999999999e-01
-1.000000000000000e+00 1.000000000000000e+00 8.999999999999999e-01
-1.000000000000000e+00 1.000000000000000e+00 2.700000000000000e+00
1.000000000000000e+00 -1.000000000000000e+00 2.700000000000000e+00
1.000000000000000e+00 -1.000000000000000e+00 8.999999999999999e-01
1.000000000000000e+00 1.000000000000000e+00 8.999999999999999e-01
1.000000000000000e+00 1.000000000000000e+00 2.700000000000000e+00
-1.000000000000000e+00 -1.000000000000000e+00 8.999999999999999e-01
-1.000000000000000e+00 -1.000000000000000e+00 -9.000000000000004e-01
-1.000000000000000e+00 1.000000000000000e+00 -9.000000000000004e-01
-1.000000000000000e+00 1.000000000000000e+00 8.999999999999999e-01
1.000000000000000e+00 -1.000000000000000e+00 8.999999999999999e-01
1.000000000000000e+00 -1.000000000000000e+00 -9.000000000000004e-01
1.000000000000000e+00 1.000000000000000e+00 -9.000000000000004e-01
1.000000000000000e+00 1.000000000000000e+00 8.999999999999999e-01
-1.000000000000000e+00 -1.000000000000000e+00 -9.000000000000004e-01
-1.000000000000000e+00 -1.000000000000000e+00 -2.700000000000000e+00
-1.000000000000000e+00 1.000000000000000e+00 -2.700000000000000e+00
-1.000000000000000e+00 1.000000000000000e+00 -9.000000000000004e-01
1.000000000000000e+00 -1.000000000000000e+00 -9.000000000000004e-01
1.000000000000000e+00 -1.000000000000000e+00 -2.700000000000000e+00
1.000000000000000e+00 1.000000000000000e+00 -2.700000000000000e+00
1.000000000000000e+00 1.000000000000000e+00 -9.000000000000004e-01
-1.000000000000000e+00 -1.000000000000000e+00 -2.700000000000000e+00
-1.000000000000000e+00 -1.000000000000000e+00 -4.500000000000000e+00
-1.000000000000000e+00 1.000000000000000e+00 -4.500000000000000e+00
-1.000000000000000e+00 1.000000000000000e+00 -2.700000000000000e+00
1.000000000000000e+00 -1.000000000000000e+00 -2.700000000000000e+00
1.000000000000000e+00 -1.000000000000000e+00 -4.500000000000000e+00
1.000000000000000e+00 1.000000000000000e+00 -4.500000000000000e+00
1.000000000000000e+00 1.000000000000000e+00 -2.700000000000000e+00
-1.000000000000000e+00 -1.000000000000000e+00 5.500000000000000e+00
-1.000000000000000e+00 -1.000000000000000e+00 3.500000000000000e+00
-1.000000000000000e+00 1.000000000000000e+00 3.500000000000000e+00
-1.000000000000000e+00 1.000000000000000e+00 5.500000000000000e+00
1.000000000000000e+00 -1.000000000000000e+00 5.500000000000000e+00
1.000000000000000e+00 -1.000000000000000e+00 3.500000000000000e+00
1.000000000000000e+00 1.000000000000000e+00 3.500000000000000e+00
1.000000000000000e+00 1.000000000000000e+00 5.500000000000000e+00
        </DataArray>
      </Points>

      <Cells>
        <DataArray type="Int32" Name="connectivity" format="ascii">
0 1 2 3 4 5 6 7 8 9 10 11 12 13 14 15 16 17 18 19 20 21 22 23 24 25 26 27 28 29 30 31 32 33 34 35 36 37 38 39 40 41 42 43 44 45 46 47 
        </DataArray>
        <DataArray type="Int32" Name="offsets" format="ascii">
8 16 24 32 40 48 
        </DataArray>
        <DataArray type="UInt8" Name="types" format="ascii">
12 12 12 12 12 12 
        </DataArray>
      </Cells>

  <PointData>
        <DataArray type="Float64" Name="displacement" NumberOfComponents="3" format="ascii">
0.000000000000000e+00 0.000000000000000e+00 0.000000000000000e+00
0.000000000000000e+00 0.000000000000000e+00 0.000000000000000e+00
0.000000000000000e+00 0.000000000000000e+00 0.000000000000000e+00
0.000000000000000e+00 0.000000000000000e+00 0.000000000000000e+00
0.000000000000000e+00 0.000000000000000e+00 0.000000000000000e+00
0.000000000000000e+00 0.000000000000000e+00 0.000000000000000e+00
0.000000000000000e+00 0.000000000000000e+00 0.000000000000000e+00
0.000000000000000e+00 0.000000000000000e+00 0.000000000000000e+00
0.000000000000000e+00 0.000000000000000e+00 0.000000000000000e+00
0.000000000000000e+00 0.000000000000000e+00 0.000000000000000e+00
0.000000000000000e+00 0.000000000000000e+00 0.000000000000000e+00
0.000000000000000e+00 0.000000000000000e+00 0.000000000000000e+00
0.000000000000000e+00 0.000000000000000e+00 0.000000000000000e+00
0.000000000000000e+00 0.000000000000000e+00 0.000000000000000e+00
0.000000000000000e+00 0.000000000000000e+00 0.000000000000000e+00
0.000000000000000e+00 0.000000000000000e+00 0.000000000000000e+00
0.000000000000000e+00 0.000000000000000e+00 0.000000000000000e+00
0.000000000000000e+00 0.000000000000000e+00 0.000000000000000e+00
0.000000000000000e+00 0.000000000000000e+00 0.000000000000000e+00
0.000000000000000e+00 0.000000000000000e+00 0.000000000000000e+00
0.000000000000000e+00 0.000000000000000e+00 0.000000000000000e+00
0.000000000000000e+00 0.000000000000000e+00 0.000000000000000e+00
0.000000000000000e+00 0.000000000000000e+00 0.000000000000000e+00
0.000000000000000e+00 0.000000000000000e+00 0.000000000000000e+00
0.000000000000000e+00 0.000000000000000e+00 0.000000000000000e+00
0.000000000000000e+00 0.000000000000000e+00 0.000000000000000e+00
0.000000000000000e+00 0.000000000000000e+00 0.000000000000000e+00
0.000000000000000e+00 0.000000000000000e+00 0.000000000000000e+00
0.000000000000000e+00 0.000000000000000e+00 0.000000000000000e+00
0.000000000000000e+00 0.000000000000000e+00 0.000000000000000e+00
0.000000000000000e+00 0.000000000000000e+00 0.000000000000000e+00
0.000000000000000e+00 0.000000000000000e+00 0.000000000000000e+00
0.000000000000000e+00 0.000000000000000e+00 0.000000000000000e+00
0.000000000000000e+00 0.000000000000000e+00 0.000000000000000e+00
0.000000000000000e+00 0.000000000000000e+00 0.000000000000000e+00
0.000000000000000e+00 0.000000000000000e+00 0.000000000000000e+00
0.000000000000000e+00 0.000000000000000e+00 0.000000000000000e+00
0.000000000000000e+00 0.000000000000000e+00 0.000000000000000e+00
0.000000000000000e+00 0.000000000000000e+00 0.000000000000000e+00
0.000000000000000e+00 0.000000000000000e+00 0.000000000000000e+00
0.000000000000000e+00 0.000000000000000e+00 0.000000000000000e+00
0.000000000000000e+00 0.000000000000000e+00 0.000000000000000e+00
0.000000000000000e+00 0.000000000000000e+00 0.000000000000000e+00
0.000000000000000e+00 0.000000000000000e+00 0.000000000000000e+00
0.000000000000000e+00 0.000000000000000e+00 0.000000000000000e+00
0.000000000000000e+00 0.000000000000000e+00 0.000000000000000e+00
0.000000000000000e+00 0.000000000000000e+00 0.000000000000000e+00
0.000000000000000e+00 0.000000000000000e+00 0.000000000000000e+00
        </DataArray>
        <DataArray type="Float64" Name="node_gid" format="ascii">
0.000000000000000e+00
1.000000000000000e+00
2.000000000000000e+00
3.000000000000000e+00
4.000000000000000e+00
5.000000000000000e+00
6.000000000000000e+00
7.000000000000000e+00
1.000000000000000e+00
8.000000000000000e+00
9.000000000000000e+00
2.000000000000000e+00
5.000000000000000e+00
1.000000000000000e+01
1.100000000000000e+01
6.000000000000000e+00
8.000000000000000e+00
1.200000000000000e+01
1.300000000000000e+01
9.000000000000000e+00
1.000000000000000e+01
1.400000000000000e+01
1.500000000000000e+01
1.100000000000000e+01
1.200000000000000e+01
1.600000000000000e+01
1.700000000000000e+01
1.300000000000000e+01
1.400000000000000e+01
1.800000000000000e+01
1.900000000000000e+01
1.500000000000000e+01
1.600000000000000e+01
2.000000000000000e+01
2.100000000000000e+01
1.700000000000000e+01
1.800000000000000e+01
2.200000000000000e+01
2.300000000000000e+01
1.900000000000000e+01
2.400000000000000e+01
2.500000000000000e+01
2.600000000000000e+01
2.700000000000000e+01
2.800000000000000e+01
2.900000000000000e+01
3.000000000000000e+01
3.100000000000000e+01
        </DataArray>
  </PointData>
  <CellData>
        <DataArray type="Float64" Name="element_ghosting" format="ascii">
0.000000000000000e+00
0.000000000000000e+00
0.000000000000000e+00
0.000000000000000e+00
0.000000000000000e+00
0.000000000000000e+00
        </DataArray>
        <DataArray type="Float64" Name="element_gid" format="ascii">
0.000000000000000e+00
1.000000000000000e+00
2.000000000000000e+00
3.000000000000000e+00
4.000000000000000e+00
5.000000000000000e+00
        </DataArray>
        <DataArray type="Float64" Name="element_owner" format="ascii">
0.000000000000000e+00
0.000000000000000e+00
0.000000000000000e+00
0.000000000000000e+00
0.000000000000000e+00
0.000000000000000e+00
        </DataArray>
      </CellData>

    </Piece>
  </UnstructuredGrid>
</VTKFile>
