<?xml version="1.0" ?> 
<!-- 
# vtk DataFile Version 3.0
-->
<VTKFile type="UnstructuredGrid" version="0.1" compressor="vtkZLibDataCompressor" byte_order="LittleEndian">
  <UnstructuredGrid>
    <FieldData>
      <DataArray type="Float64" Name="TIME" NumberOfTuples="1" format="ascii">
1.000000000000000e+00 
      </DataArray>
    </FieldData>

    <Piece NumberOfPoints="48" NumberOfCells="6" >
      <Points>
        <DataArray type="Float64" NumberOfComponents="3" format="ascii">
-1.000000000000000e+00 -1.000000000000000e+00 4.500000000000000e+00
-1.000000000000000e+00 -1.000000000000000e+00 2.700000000000000e+00
-1.000000000000000e+00 1.000000000000000e+00 2.700000000000000e+00
-1.000000000000000e+00 1.000000000000000e+00 4.500000000000000e+00
1.000000000000000e+00 -1.000000000000000e+00 4.500000000000000e+00
1.000000000000000e+00 -1.000000000000000e+00 2.700000000000000e+00
1.000000000000000e+00 1.000000000000000e+00 2.700000000000000e+00
1.000000000000000e+00 1.000000000000000e+00 4.500000000000000e+00
-1.000000000000000e+00 -1.000000000000000e+00 2.700000000000000e+00
-1.000000000000000e+00 -1.000000000000000e+00 8.999999999999999e-01
-1.000000000000000e+00 1.000000000000000e+00 8.999999999999999e-01
-1.000000000000000e+00 1.000000000000000e+00 2.700000000000000e+00
1.000000000000000e+00 -1.000000000000000e+00 2.700000000000000e+00
1.000000000000000e+00 -1.000000000000000e+00 8.999999999999999e-01
1.000000000000000e+00 1.000000000000000e+00 8.999999999999999e-01
1.000000000000000e+00 1.000000000000000e+00 2.700000000000000e+00
-1.000000000000000e+00 -1.000000000000000e+00 8.999999999999999e-01
-1.000000000000000e+00 -1.000000000000000e+00 -9.000000000000004e-01
-1.000000000000000e+00 1.000000000000000e+00 -9.000000000000004e-01
-1.000000000000000e+00 1.000000000000000e+00 8.999999999999999e-01
1.000000000000000e+00 -1.000000000000000e+00 8.999999999999999e-01
1.000000000000000e+00 -1.000000000000000e+00 -9.000000000000004e-01
1.000000000000000e+00 1.000000000000000e+00 -9.000000000000004e-01
1.000000000000000e+00 1.000000000000000e+00 8.999999999999999e-01
-1.000000000000000e+00 -1.000000000000000e+00 -9.000000000000004e-01
-1.000000000000000e+00 -1.000000000000000e+00 -2.700000000000000e+00
-1.000000000000000e+00 1.000000000000000e+00 -2.700000000000000e+00
-1.000000000000000e+00 1.000000000000000e+00 -9.000000000000004e-01
1.000000000000000e+00 -1.000000000000000e+00 -9.000000000000004e-01
1.000000000000000e+00 -1.000000000000000e+00 -2.700000000000000e+00
1.000000000000000e+00 1.000000000000000e+00 -2.700000000000000e+00
1.000000000000000e+00 1.000000000000000e+00 -9.000000000000004e-01
-1.000000000000000e+00 -1.000000000000000e+00 -2.700000000000000e+00
-1.000000000000000e+00 -1.000000000000000e+00 -4.500000000000000e+00
-1.000000000000000e+00 1.000000000000000e+00 -4.500000000000000e+00
-1.000000000000000e+00 1.000000000000000e+00 -2.700000000000000e+00
1.000000000000000e+00 -1.000000000000000e+00 -2.700000000000000e+00
1.000000000000000e+00 -1.000000000000000e+00 -4.500000000000000e+00
1.000000000000000e+00 1.000000000000000e+00 -4.500000000000000e+00
1.000000000000000e+00 1.000000000000000e+00 -2.700000000000000e+00
-1.000000000000000e+00 -1.000000000000000e+00 5.500000000000000e+00
-1.000000000000000e+00 -1.000000000000000e+00 3.500000000000000e+00
-1.000000000000000e+00 1.000000000000000e+00 3.500000000000000e+00
-1.000000000000000e+00 1.000000000000000e+00 5.500000000000000e+00
1.000000000000000e+00 -1.000000000000000e+00 5.500000000000000e+00
1.000000000000000e+00 -1.000000000000000e+00 3.500000000000000e+00
1.000000000000000e+00 1.000000000000000e+00 3.500000000000000e+00
1.000000000000000e+00 1.000000000000000e+00 5.500000000000000e+00
        </DataArray>
      </Points>

      <Cells>
        <DataArray type="Int32" Name="connectivity" format="ascii">
0 1 2 3 4 5 6 7 8 9 10 11 12 13 14 15 16 17 18 19 20 21 22 23 24 25 26 27 28 29 30 31 32 33 34 35 36 37 38 39 40 41 42 43 44 45 46 47 
        </DataArray>
        <DataArray type="Int32" Name="offsets" format="ascii">
8 16 24 32 40 48 
        </DataArray>
        <DataArray type="UInt8" Name="types" format="ascii">
12 12 12 12 12 12 
        </DataArray>
      </Cells>

  <PointData>
        <DataArray type="Float64" Name="displacement" NumberOfComponents="3" format="ascii">
2.798423669033820e+00 -2.798419976846893e+00 -5.060743875101135e-01
2.078340231509470e+00 -2.078324063204184e+00 -3.114183621681449e-01
2.227468679519784e+00 -2.227468679519784e+00 4.315446323893170e-01
2.962435515897513e+00 -2.962435515897515e+00 2.703983778213198e-01
2.634316821452773e+00 -2.634316821452773e+00 -1.282770603721720e+00
1.929048467069468e+00 -1.929048467069468e+00 -1.054699527261764e+00
2.078324063204185e+00 -2.078340231509470e+00 -3.114183621681449e-01
2.798419976846894e+00 -2.798423669033822e+00 -5.060743875101141e-01
2.078340231509470e+00 -2.078324063204184e+00 -3.114183621681449e-01
1.385502165231182e+00 -1.385411427526493e+00 -1.397907958416896e-01
1.514088522350264e+00 -1.514088522350263e+00 5.536669462993882e-01
2.227468679519784e+00 -2.227468679519784e+00 4.315446323893170e-01
1.929048467069468e+00 -1.929048467069468e+00 -1.054699527261764e+00
1.256485085758314e+00 -1.256485085758314e+00 -8.343010774109030e-01
1.385411427526493e+00 -1.385502165231182e+00 -1.397907958416898e-01
2.078324063204185e+00 -2.078340231509470e+00 -3.114183621681449e-01
1.385502165231182e+00 -1.385411427526493e+00 -1.397907958416896e-01
7.566344668220366e-01 -7.559930825693595e-01 -1.550743628445553e-02
8.479464069823680e-01 -8.479464069823680e-01 5.759353070536474e-01
1.514088522350264e+00 -1.514088522350263e+00 5.536669462993882e-01
1.256485085758314e+00 -1.256485085758314e+00 -8.343010774109030e-01
6.626459987998349e-01 -6.626459987998352e-01 -6.124692046667611e-01
7.559930825693593e-01 -7.566344668220367e-01 -1.550743628445617e-02
1.385411427526493e+00 -1.385502165231182e+00 -1.397907958416898e-01
7.566344668220366e-01 -7.559930825693595e-01 -1.550743628445553e-02
2.524185968987089e-01 -2.526732398685069e-01 3.645947299620656e-02
2.947622221815382e-01 -2.947622221815389e-01 4.208981429626565e-01
8.479464069823680e-01 -8.479464069823680e-01 5.759353070536474e-01
6.626459987998349e-01 -6.626459987998352e-01 -6.124692046667611e-01
2.093876953777304e-01 -2.093876953777306e-01 -3.701012652631498e-01
2.526732398685062e-01 -2.524185968987090e-01 3.645947299620667e-02
7.559930825693593e-01 -7.566344668220367e-01 -1.550743628445617e-02
2.524185968987089e-01 -2.526732398685069e-01 3.645947299620656e-02
0.000000000000000e+00 0.000000000000000e+00 0.000000000000000e+00
0.000000000000000e+00 0.000000000000000e+00 0.000000000000000e+00
2.947622221815382e-01 -2.947622221815389e-01 4.208981429626565e-01
2.093876953777304e-01 -2.093876953777306e-01 -3.701012652631498e-01
0.000000000000000e+00 0.000000000000000e+00 0.000000000000000e+00
0.000000000000000e+00 0.000000000000000e+00 0.000000000000000e+00
2.526732398685062e-01 -2.524185968987090e-01 3.645947299620667e-02
3.210829629702868e+00 -3.210812391227173e+00 -6.250031182359059e-01
2.398425307143934e+00 -2.398415176394360e+00 -3.978360759239500e-01
2.554223339834286e+00 -2.554223339834286e+00 3.601400578476672e-01
3.371516110570447e+00 -3.371516110570449e+00 1.439267322931679e-01
3.050107602529433e+00 -3.050107602529431e+00 -1.393970617447974e+00
2.242501858787261e+00 -2.242501858787260e+00 -1.156072583747123e+00
2.398415176394358e+00 -2.398425307143933e+00 -3.978360759239493e-01
3.210812391227172e+00 -3.210829629702866e+00 -6.250031182359043e-01
        </DataArray>
        <DataArray type="Float64" Name="node_gid" format="ascii">
0.000000000000000e+00
1.000000000000000e+00
2.000000000000000e+00
3.000000000000000e+00
4.000000000000000e+00
5.000000000000000e+00
6.000000000000000e+00
7.000000000000000e+00
1.000000000000000e+00
8.000000000000000e+00
9.000000000000000e+00
2.000000000000000e+00
5.000000000000000e+00
1.000000000000000e+01
1.100000000000000e+01
6.000000000000000e+00
8.000000000000000e+00
1.200000000000000e+01
1.300000000000000e+01
9.000000000000000e+00
1.000000000000000e+01
1.400000000000000e+01
1.500000000000000e+01
1.100000000000000e+01
1.200000000000000e+01
1.600000000000000e+01
1.700000000000000e+01
1.300000000000000e+01
1.400000000000000e+01
1.800000000000000e+01
1.900000000000000e+01
1.500000000000000e+01
1.600000000000000e+01
2.000000000000000e+01
2.100000000000000e+01
1.700000000000000e+01
1.800000000000000e+01
2.200000000000000e+01
2.300000000000000e+01
1.900000000000000e+01
2.400000000000000e+01
2.500000000000000e+01
2.600000000000000e+01
2.700000000000000e+01
2.800000000000000e+01
2.900000000000000e+01
3.000000000000000e+01
3.100000000000000e+01
        </DataArray>
  </PointData>
  <CellData>
        <DataArray type="Float64" Name="element_ghosting" format="ascii">
0.000000000000000e+00
0.000000000000000e+00
0.000000000000000e+00
0.000000000000000e+00
0.000000000000000e+00
0.000000000000000e+00
        </DataArray>
        <DataArray type="Float64" Name="element_gid" format="ascii">
0.000000000000000e+00
1.000000000000000e+00
2.000000000000000e+00
3.000000000000000e+00
4.000000000000000e+00
5.000000000000000e+00
        </DataArray>
        <DataArray type="Float64" Name="element_owner" format="ascii">
0.000000000000000e+00
0.000000000000000e+00
0.000000000000000e+00
0.000000000000000e+00
0.000000000000000e+00
0.000000000000000e+00
        </DataArray>
      </CellData>

    </Piece>
  </UnstructuredGrid>
</VTKFile>
