<?xml version="1.0" ?> 
<!-- 
# vtk DataFile Version 3.0
-->
<VTKFile type="UnstructuredGrid" version="0.1" compressor="vtkZLibDataCompressor" byte_order="LittleEndian">
  <UnstructuredGrid>
    <FieldData>
      <DataArray type="Float64" Name="TIME" NumberOfTuples="1" format="ascii">
0.000000000000000e+00 
      </DataArray>
    </FieldData>

    <Piece NumberOfPoints="12" NumberOfCells="2" >
      <Points>
        <DataArray type="Float64" NumberOfComponents="3" format="ascii">
2.500000000000000e+00 2.500000000000000e+00 5.000000000000000e-01
2.500000000000000e+00 2.500000000000000e+00 7.000000000000001e-01
2.500000000000000e+00 2.500000000000000e+00 9.000000000000002e-01
2.500000000000000e+00 2.500000000000000e+00 1.100000000000000e+00
2.500000000000000e+00 2.500000000000001e+00 1.300000000000000e+00
2.500000000000001e+00 2.500000000000001e+00 1.500000000000000e+00
2.500000000000000e+00 2.500000000000000e+00 2.500000000000000e+00
2.500000000000000e+00 2.500000000000000e+00 2.700000000000000e+00
2.500000000000000e+00 2.500000000000000e+00 2.900000000000000e+00
2.500000000000000e+00 2.500000000000000e+00 3.100000000000001e+00
2.500000000000000e+00 2.500000000000000e+00 3.300000000000001e+00
2.500000000000000e+00 2.500000000000000e+00 3.500000000000001e+00
        </DataArray>
      </Points>

      <Cells>
        <DataArray type="Int32" Name="connectivity" format="ascii">
0 1 2 3 4 5 6 7 8 9 10 11 
        </DataArray>
        <DataArray type="Int32" Name="offsets" format="ascii">
6 12 
        </DataArray>
        <DataArray type="UInt8" Name="types" format="ascii">
4 4 
        </DataArray>
      </Cells>

  <PointData>
        <DataArray type="Float64" Name="base_vector_1" NumberOfComponents="3" format="ascii">
4.896638650109253e-12 0.000000000000000e+00 1.000000000000000e+00
4.896638650109253e-12 0.000000000000000e+00 1.000000000000000e+00
4.896638650109253e-12 0.000000000000000e+00 1.000000000000000e+00
4.896638650109253e-12 0.000000000000000e+00 1.000000000000000e+00
4.896638650109253e-12 0.000000000000000e+00 1.000000000000000e+00
4.896638650109253e-12 0.000000000000000e+00 1.000000000000000e+00
4.896638650109253e-12 0.000000000000000e+00 1.000000000000000e+00
4.896638650109253e-12 0.000000000000000e+00 1.000000000000000e+00
4.896638650109253e-12 0.000000000000000e+00 1.000000000000000e+00
4.896638650109253e-12 0.000000000000000e+00 1.000000000000000e+00
4.896638650109253e-12 0.000000000000000e+00 1.000000000000000e+00
4.896638650109253e-12 0.000000000000000e+00 1.000000000000000e+00
        </DataArray>
        <DataArray type="Float64" Name="base_vector_2" NumberOfComponents="3" format="ascii">
-0.000000000000000e+00 1.000000000000000e+00 0.000000000000000e+00
-0.000000000000000e+00 1.000000000000000e+00 0.000000000000000e+00
-0.000000000000000e+00 1.000000000000000e+00 0.000000000000000e+00
-0.000000000000000e+00 1.000000000000000e+00 0.000000000000000e+00
-0.000000000000000e+00 1.000000000000000e+00 0.000000000000000e+00
-0.000000000000000e+00 1.000000000000000e+00 0.000000000000000e+00
-0.000000000000000e+00 1.000000000000000e+00 0.000000000000000e+00
-0.000000000000000e+00 1.000000000000000e+00 0.000000000000000e+00
-0.000000000000000e+00 1.000000000000000e+00 0.000000000000000e+00
-0.000000000000000e+00 1.000000000000000e+00 0.000000000000000e+00
-0.000000000000000e+00 1.000000000000000e+00 0.000000000000000e+00
-0.000000000000000e+00 1.000000000000000e+00 0.000000000000000e+00
        </DataArray>
        <DataArray type="Float64" Name="base_vector_3" NumberOfComponents="3" format="ascii">
-1.000000000000000e+00 -0.000000000000000e+00 4.896638650109253e-12
-1.000000000000000e+00 -0.000000000000000e+00 4.896638650109253e-12
-1.000000000000000e+00 -0.000000000000000e+00 4.896638650109253e-12
-1.000000000000000e+00 -0.000000000000000e+00 4.896638650109253e-12
-1.000000000000000e+00 -0.000000000000000e+00 4.896638650109253e-12
-1.000000000000000e+00 -0.000000000000000e+00 4.896638650109253e-12
-1.000000000000000e+00 -0.000000000000000e+00 4.896638650109253e-12
-1.000000000000000e+00 -0.000000000000000e+00 4.896638650109253e-12
-1.000000000000000e+00 -0.000000000000000e+00 4.896638650109253e-12
-1.000000000000000e+00 -0.000000000000000e+00 4.896638650109253e-12
-1.000000000000000e+00 -0.000000000000000e+00 4.896638650109253e-12
-1.000000000000000e+00 -0.000000000000000e+00 4.896638650109253e-12
        </DataArray>
        <DataArray type="Float64" Name="displacement" NumberOfComponents="3" format="ascii">
0.000000000000000e+00 0.000000000000000e+00 0.000000000000000e+00
0.000000000000000e+00 0.000000000000000e+00 0.000000000000000e+00
0.000000000000000e+00 0.000000000000000e+00 0.000000000000000e+00
0.000000000000000e+00 0.000000000000000e+00 0.000000000000000e+00
0.000000000000000e+00 0.000000000000000e+00 0.000000000000000e+00
0.000000000000000e+00 0.000000000000000e+00 0.000000000000000e+00
0.000000000000000e+00 0.000000000000000e+00 0.000000000000000e+00
0.000000000000000e+00 0.000000000000000e+00 0.000000000000000e+00
0.000000000000000e+00 0.000000000000000e+00 0.000000000000000e+00
0.000000000000000e+00 0.000000000000000e+00 0.000000000000000e+00
0.000000000000000e+00 0.000000000000000e+00 0.000000000000000e+00
0.000000000000000e+00 0.000000000000000e+00 0.000000000000000e+00
        </DataArray>
  </PointData>
  <CellData>
        <DataArray type="Float64" Name="axial_strain_GPs" format="ascii">
2.220446049250313e-16
4.440892098500626e-16
        </DataArray>
        <DataArray type="Float64" Name="cross_section_radius" format="ascii">
2.454362714131787e-03
2.454362714131787e-03
        </DataArray>
        <DataArray type="Float64" Name="curvature_2_GPs" format="ascii">
0.000000000000000e+00
0.000000000000000e+00
        </DataArray>
        <DataArray type="Float64" Name="curvature_3_GPs" format="ascii">
0.000000000000000e+00
0.000000000000000e+00
        </DataArray>
        <DataArray type="Float64" Name="element_owner" format="ascii">
2.000000000000000e+00
2.000000000000000e+00
        </DataArray>
        <DataArray type="Float64" Name="material_axial_force_GPs" format="ascii">
5.484501741648273e-14
1.096900348329655e-13
        </DataArray>
        <DataArray type="Float64" Name="material_bending_moment_2_GPs" format="ascii">
0.000000000000000e+00
0.000000000000000e+00
        </DataArray>
        <DataArray type="Float64" Name="material_bending_moment_3_GPs" format="ascii">
0.000000000000000e+00
0.000000000000000e+00
        </DataArray>
        <DataArray type="Float64" Name="material_shear_force_2_GPs" format="ascii">
4.218847493575595e-14
4.218847493575595e-14
        </DataArray>
        <DataArray type="Float64" Name="material_shear_force_3_GPs" format="ascii">
-4.218847493567921e-14
-4.218847493552573e-14
        </DataArray>
        <DataArray type="Float64" Name="material_torque_GPs" format="ascii">
0.000000000000000e+00
0.000000000000000e+00
        </DataArray>
        <DataArray type="Float64" Name="shear_strain_2_GPs" format="ascii">
4.440892098500626e-16
4.440892098500626e-16
        </DataArray>
        <DataArray type="Float64" Name="shear_strain_3_GPs" format="ascii">
-4.440892098492548e-16
-4.440892098476392e-16
        </DataArray>
        <DataArray type="Float64" Name="twist_GPs" format="ascii">
0.000000000000000e+00
0.000000000000000e+00
        </DataArray>
      </CellData>

    </Piece>
  </UnstructuredGrid>
</VTKFile>
