<?xml version="1.0" ?> 
<!-- 
# vtk DataFile Version 3.0
-->
<VTKFile type="UnstructuredGrid" version="0.1" compressor="vtkZLibDataCompressor" byte_order="LittleEndian">
  <UnstructuredGrid>
    <FieldData>
      <DataArray type="Float64" Name="TIME" NumberOfTuples="1" format="ascii">
0.000000000000000e+00 
      </DataArray>
    </FieldData>

    <Piece NumberOfPoints="6" NumberOfCells="1" >
      <Points>
        <DataArray type="Float64" NumberOfComponents="3" format="ascii">
2.500000000000000e+00 2.500000000000000e+00 3.500000000000000e+00
2.500000000000000e+00 2.500000000000000e+00 3.700000000000001e+00
2.500000000000000e+00 2.500000000000000e+00 3.900000000000001e+00
2.500000000000000e+00 2.500000000000000e+00 4.100000000000000e+00
2.500000000000000e+00 2.500000000000000e+00 4.300000000000000e+00
2.500000000000000e+00 2.500000000000000e+00 4.500000000000000e+00
        </DataArray>
      </Points>

      <Cells>
        <DataArray type="Int32" Name="connectivity" format="ascii">
0 1 2 3 4 5 
        </DataArray>
        <DataArray type="Int32" Name="offsets" format="ascii">
6 
        </DataArray>
        <DataArray type="UInt8" Name="types" format="ascii">
4 
        </DataArray>
      </Cells>

  <PointData>
        <DataArray type="Float64" Name="base_vector_1" NumberOfComponents="3" format="ascii">
4.896638650109253e-12 0.000000000000000e+00 1.000000000000000e+00
4.896638650109253e-12 0.000000000000000e+00 1.000000000000000e+00
4.896638650109253e-12 0.000000000000000e+00 1.000000000000000e+00
4.896638650109253e-12 0.000000000000000e+00 1.000000000000000e+00
4.896638650109253e-12 0.000000000000000e+00 1.000000000000000e+00
4.896638650109253e-12 0.000000000000000e+00 1.000000000000000e+00
        </DataArray>
        <DataArray type="Float64" Name="base_vector_2" NumberOfComponents="3" format="ascii">
-0.000000000000000e+00 1.000000000000000e+00 0.000000000000000e+00
-0.000000000000000e+00 1.000000000000000e+00 0.000000000000000e+00
-0.000000000000000e+00 1.000000000000000e+00 0.000000000000000e+00
-0.000000000000000e+00 1.000000000000000e+00 0.000000000000000e+00
-0.000000000000000e+00 1.000000000000000e+00 0.000000000000000e+00
-0.000000000000000e+00 1.000000000000000e+00 0.000000000000000e+00
        </DataArray>
        <DataArray type="Float64" Name="base_vector_3" NumberOfComponents="3" format="ascii">
-1.000000000000000e+00 -0.000000000000000e+00 4.896638650109253e-12
-1.000000000000000e+00 -0.000000000000000e+00 4.896638650109253e-12
-1.000000000000000e+00 -0.000000000000000e+00 4.896638650109253e-12
-1.000000000000000e+00 -0.000000000000000e+00 4.896638650109253e-12
-1.000000000000000e+00 -0.000000000000000e+00 4.896638650109253e-12
-1.000000000000000e+00 -0.000000000000000e+00 4.896638650109253e-12
        </DataArray>
        <DataArray type="Float64" Name="displacement" NumberOfComponents="3" format="ascii">
0.000000000000000e+00 0.000000000000000e+00 0.000000000000000e+00
0.000000000000000e+00 0.000000000000000e+00 0.000000000000000e+00
0.000000000000000e+00 0.000000000000000e+00 0.000000000000000e+00
0.000000000000000e+00 0.000000000000000e+00 0.000000000000000e+00
0.000000000000000e+00 0.000000000000000e+00 0.000000000000000e+00
0.000000000000000e+00 0.000000000000000e+00 0.000000000000000e+00
        </DataArray>
  </PointData>
  <CellData>
        <DataArray type="Float64" Name="axial_strain_GPs" format="ascii">
0.000000000000000e+00
        </DataArray>
        <DataArray type="Float64" Name="cross_section_radius" format="ascii">
2.454362714131787e-03
        </DataArray>
        <DataArray type="Float64" Name="curvature_2_GPs" format="ascii">
0.000000000000000e+00
        </DataArray>
        <DataArray type="Float64" Name="curvature_3_GPs" format="ascii">
0.000000000000000e+00
        </DataArray>
        <DataArray type="Float64" Name="element_owner" format="ascii">
0.000000000000000e+00
        </DataArray>
        <DataArray type="Float64" Name="material_axial_force_GPs" format="ascii">
0.000000000000000e+00
        </DataArray>
        <DataArray type="Float64" Name="material_bending_moment_2_GPs" format="ascii">
0.000000000000000e+00
        </DataArray>
        <DataArray type="Float64" Name="material_bending_moment_3_GPs" format="ascii">
0.000000000000000e+00
        </DataArray>
        <DataArray type="Float64" Name="material_shear_force_2_GPs" format="ascii">
0.000000000000000e+00
        </DataArray>
        <DataArray type="Float64" Name="material_shear_force_3_GPs" format="ascii">
0.000000000000000e+00
        </DataArray>
        <DataArray type="Float64" Name="material_torque_GPs" format="ascii">
0.000000000000000e+00
        </DataArray>
        <DataArray type="Float64" Name="shear_strain_2_GPs" format="ascii">
0.000000000000000e+00
        </DataArray>
        <DataArray type="Float64" Name="shear_strain_3_GPs" format="ascii">
0.000000000000000e+00
        </DataArray>
        <DataArray type="Float64" Name="twist_GPs" format="ascii">
0.000000000000000e+00
        </DataArray>
      </CellData>

    </Piece>
  </UnstructuredGrid>
</VTKFile>
