<?xml version="1.0" ?> 
<!-- 
# vtk DataFile Version 3.0
-->
<VTKFile type="UnstructuredGrid" version="0.1" compressor="vtkZLibDataCompressor" byte_order="LittleEndian">
  <UnstructuredGrid>
    <FieldData>
      <DataArray type="Float64" Name="TIME" NumberOfTuples="1" format="ascii">
1.000000000000000e+00 
      </DataArray>
    </FieldData>

    <Piece NumberOfPoints="35" NumberOfCells="2" >
      <Points>
        <DataArray type="Float64" NumberOfComponents="3" format="ascii">
-5.000000000000000e-01 -5.000000000000000e-01 -1.000000000000000e-01
5.000000000000000e-01 -5.000000000000000e-01 -1.000000000000000e-01
5.000000000000000e-01 5.000000000000000e-01 -1.000000000000000e-01
-5.000000000000000e-01 5.000000000000000e-01 -1.000000000000000e-01
-5.000000000000000e-01 -5.000000000000000e-01 9.000000000000000e-01
5.000000000000000e-01 -5.000000000000000e-01 9.000000000000000e-01
5.000000000000000e-01 5.000000000000000e-01 9.000000000000000e-01
-5.000000000000000e-01 5.000000000000000e-01 9.000000000000000e-01
0.000000000000000e+00 -5.000000000000000e-01 -1.000000000000000e-01
5.000000000000000e-01 0.000000000000000e+00 -1.000000000000000e-01
0.000000000000000e+00 5.000000000000000e-01 -1.000000000000000e-01
-5.000000000000000e-01 0.000000000000000e+00 -1.000000000000000e-01
0.000000000000000e+00 -5.000000000000000e-01 9.000000000000000e-01
5.000000000000000e-01 0.000000000000000e+00 9.000000000000000e-01
0.000000000000000e+00 5.000000000000000e-01 9.000000000000000e-01
-5.000000000000000e-01 0.000000000000000e+00 9.000000000000000e-01
-5.000000000000000e-01 -5.000000000000000e-01 4.000000000000000e-01
5.000000000000000e-01 -5.000000000000000e-01 4.000000000000000e-01
5.000000000000000e-01 5.000000000000000e-01 4.000000000000000e-01
-5.000000000000000e-01 5.000000000000000e-01 4.000000000000000e-01
-5.000000000000000e-01 0.000000000000000e+00 4.000000000000000e-01
5.000000000000000e-01 0.000000000000000e+00 4.000000000000000e-01
0.000000000000000e+00 -5.000000000000000e-01 4.000000000000000e-01
0.000000000000000e+00 5.000000000000000e-01 4.000000000000000e-01
0.000000000000000e+00 0.000000000000000e+00 -1.000000000000000e-01
0.000000000000000e+00 0.000000000000000e+00 9.000000000000001e-01
0.000000000000000e+00 0.000000000000000e+00 4.000000000000000e-01
-5.000000000000000e-01 -5.000000000000000e-01 5.000000000000000e-01
-5.000000000000000e-01 -5.000000000000000e-01 -5.000000000000000e-01
-5.000000000000000e-01 5.000000000000000e-01 -5.000000000000000e-01
-5.000000000000000e-01 5.000000000000000e-01 5.000000000000000e-01
5.000000000000000e-01 -5.000000000000000e-01 5.000000000000000e-01
5.000000000000000e-01 -5.000000000000000e-01 -5.000000000000000e-01
5.000000000000000e-01 5.000000000000000e-01 -5.000000000000000e-01
5.000000000000000e-01 5.000000000000000e-01 5.000000000000000e-01
        </DataArray>
      </Points>

      <Cells>
        <DataArray type="Int32" Name="connectivity" format="ascii">
0 1 2 3 4 5 6 7 8 9 10 11 12 13 14 15 16 17 18 19 20 21 22 23 24 25 26 27 28 29 30 31 32 33 34 
        </DataArray>
        <DataArray type="Int32" Name="offsets" format="ascii">
27 35 
        </DataArray>
        <DataArray type="UInt8" Name="types" format="ascii">
29 12 
        </DataArray>
      </Cells>

  <PointData>
        <DataArray type="Float64" Name="displacement" NumberOfComponents="3" format="ascii">
9.897569098833735e-16 9.983830355155684e-16 -2.902569314142681e-02
2.033003407962699e-02 9.795093884482295e-16 -2.902569314142674e-02
2.033003407962699e-02 2.033003407962697e-02 -2.902569314142655e-02
9.863801704393427e-16 2.033003407962696e-02 -2.902569314142663e-02
1.563772214206354e-15 1.599735619110601e-15 -1.000000000000000e-01
2.033003407962631e-02 1.557131299296820e-15 -1.000000000000000e-01
2.033003407962635e-02 2.033003407962636e-02 -1.000000000000000e-01
1.572092932969071e-15 2.033003407962632e-02 -1.000000000000000e-01
1.016501703981399e-02 9.091888700729999e-16 -2.902569314142574e-02
2.033003407962707e-02 1.016501703981401e-02 -2.902569314142567e-02
1.016501703981402e-02 2.033003407962710e-02 -2.902569314142568e-02
9.133257776949202e-16 1.016501703981402e-02 -2.902569314142575e-02
1.016501703981393e-02 1.609174248741440e-15 -1.000000000000000e-01
2.033003407962626e-02 1.016501703981392e-02 -1.000000000000000e-01
1.016501703981393e-02 2.033003407962624e-02 -1.000000000000000e-01
1.659282894071151e-15 1.016501703981394e-02 -1.000000000000000e-01
1.532271217147958e-15 1.517039584124047e-15 -6.451284657071282e-02
2.033003407962638e-02 1.507211431058554e-15 -6.451284657071280e-02
2.033003407962632e-02 2.033003407962634e-02 -6.451284657071271e-02
1.569632633026144e-15 2.033003407962639e-02 -6.451284657071280e-02
1.477231593051679e-15 1.016501703981396e-02 -6.451284657071282e-02
2.033003407962642e-02 1.016501703981395e-02 -6.451284657071277e-02
1.016501703981394e-02 1.506056504245761e-15 -6.451284657071282e-02
1.016501703981397e-02 2.033003407962638e-02 -6.451284657071277e-02
1.016501703981398e-02 1.016501703981398e-02 -2.902569314142460e-02
1.016501703981393e-02 1.016501703981394e-02 -1.000000000000000e-01
1.016501703981395e-02 1.016501703981395e-02 -6.451284657071289e-02
2.186146721427852e-15 2.199810801334149e-15 -7.097430685858569e-02
0.000000000000000e+00 0.000000000000000e+00 0.000000000000000e+00
0.000000000000000e+00 2.033003407962803e-02 0.000000000000000e+00
2.204263289991985e-15 2.033003407962573e-02 -7.097430685858559e-02
2.033003407962571e-02 2.167574860246860e-15 -7.097430685858562e-02
2.033003407962798e-02 0.000000000000000e+00 0.000000000000000e+00
2.033003407962805e-02 2.033003407962803e-02 0.000000000000000e+00
2.033003407962573e-02 2.033003407962574e-02 -7.097430685858537e-02
        </DataArray>
        <DataArray type="Float64" Name="node_gid" format="ascii">
0.000000000000000e+00
2.000000000000000e+00
8.000000000000000e+00
6.000000000000000e+00
1.800000000000000e+01
2.000000000000000e+01
2.600000000000000e+01
2.400000000000000e+01
1.000000000000000e+00
5.000000000000000e+00
7.000000000000000e+00
3.000000000000000e+00
1.900000000000000e+01
2.300000000000000e+01
2.500000000000000e+01
2.100000000000000e+01
9.000000000000000e+00
1.100000000000000e+01
1.700000000000000e+01
1.500000000000000e+01
1.200000000000000e+01
1.400000000000000e+01
1.000000000000000e+01
1.600000000000000e+01
4.000000000000000e+00
2.200000000000000e+01
1.300000000000000e+01
2.700000000000000e+01
2.800000000000000e+01
2.900000000000000e+01
3.000000000000000e+01
3.100000000000000e+01
3.200000000000000e+01
3.300000000000000e+01
3.400000000000000e+01
        </DataArray>
  </PointData>
  <CellData>
        <DataArray type="Float64" Name="element_ghosting" format="ascii">
0.000000000000000e+00
0.000000000000000e+00
        </DataArray>
        <DataArray type="Float64" Name="element_gid" format="ascii">
0.000000000000000e+00
1.000000000000000e+00
        </DataArray>
        <DataArray type="Float64" Name="element_owner" format="ascii">
0.000000000000000e+00
0.000000000000000e+00
        </DataArray>
      </CellData>

    </Piece>
  </UnstructuredGrid>
</VTKFile>
