<?xml version="1.0" ?> 
<!-- 
# vtk DataFile Version 3.0
-->
<VTKFile type="UnstructuredGrid" version="0.1" compressor="vtkZLibDataCompressor" byte_order="LittleEndian">
  <UnstructuredGrid>
    <FieldData>
      <DataArray type="Float64" Name="TIME" NumberOfTuples="1" format="ascii">
3.000000000000000e+00 
      </DataArray>
    </FieldData>

    <Piece NumberOfPoints="12" NumberOfCells="2" >
      <Points>
        <DataArray type="Float64" NumberOfComponents="3" format="ascii">
-2.500000000000000e+00 0.000000000000000e+00 6.000000000000000e-01
-2.000597322135765e+00 0.000000000000000e+00 6.000000000000000e-01
-1.501194644271529e+00 0.000000000000000e+00 6.000000000000000e-01
-1.001791966407293e+00 0.000000000000000e+00 6.000000000000000e-01
-5.023892885430585e-01 0.000000000000000e+00 6.000000000000000e-01
-2.986610678822776e-03 0.000000000000000e+00 5.999999999999999e-01
-2.986610678823554e-03 0.000000000000000e+00 6.000000000000000e-01
4.976107114569417e-01 0.000000000000000e+00 6.000000000000001e-01
9.982080335927057e-01 0.000000000000000e+00 5.999999999999999e-01
1.498805355728471e+00 0.000000000000000e+00 6.000000000000000e-01
1.999402677864236e+00 0.000000000000000e+00 6.000000000000000e-01
2.500000000000000e+00 0.000000000000000e+00 6.000000000000000e-01
        </DataArray>
      </Points>

      <Cells>
        <DataArray type="Int32" Name="connectivity" format="ascii">
0 1 2 3 4 5 6 7 8 9 10 11 
        </DataArray>
        <DataArray type="Int32" Name="offsets" format="ascii">
6 12 
        </DataArray>
        <DataArray type="UInt8" Name="types" format="ascii">
4 4 
        </DataArray>
      </Cells>

  <PointData>
        <DataArray type="Float64" Name="displacement" NumberOfComponents="3" format="ascii">
0.000000000000000e+00 0.000000000000000e+00 0.000000000000000e+00
3.343393922872195e-04 -8.776530194805152e-03 1.435879584121835e-05
5.634542809684895e-04 -2.483063564386867e-02 -2.096879694778009e-03
6.621770874271071e-04 -4.563599861261534e-02 -6.665062285657997e-03
6.053402330497004e-04 -6.866630136646990e-02 -1.402153579059928e-02
3.677761392214540e-04 -9.139522617085717e-02 -2.449764702340196e-02
3.677761392212320e-04 -9.139522617085716e-02 -2.449764702340196e-02
-7.701058588094334e-05 -1.113386500469352e-01 -3.846246111126650e-02
-7.540269929150467e-04 -1.258963424306887e-01 -5.622852040520343e-02
-1.688621706485538e-03 -1.325238122185149e-01 -7.812955530198140e-02
-2.906143351194768e-03 -1.286765683068113e-01 -1.044992961983680e-01
-4.431940551647973e-03 -1.118101195919750e-01 -1.356714734911315e-01
        </DataArray>
        <DataArray type="Float64" Name="lambda" NumberOfComponents="3" format="ascii">
-8.047916455067331e-05 1.002494160598484e-02 2.770229703276208e-03
-1.868713162047738e-04 6.402632095943594e-03 1.202584208053435e-04
-2.810993493442910e-04 3.588304251505683e-03 -1.811972820057958e-03
-3.631632639692247e-04 1.581958072671099e-03 -3.026464019313696e-03
-4.330630600795751e-04 3.835935594398457e-04 -3.523215176961873e-03
-4.907987376753421e-04 -6.789288188077827e-06 -3.302226293002487e-03
-4.907987376753421e-04 -6.789288188077836e-06 -3.302226293002487e-03
-5.364647266139356e-04 4.127772042188347e-04 -2.360391267323217e-03
-5.699083307280689e-04 1.644195606509133e-03 -6.973782144868916e-04
-5.911295500177418e-04 3.687465918682818e-03 1.686812865506487e-03
-6.001283844829541e-04 6.542588140739891e-03 4.792181972656925e-03
-5.969048341237061e-04 1.020956227268035e-02 8.618729106964410e-03
        </DataArray>
      </PointData>

    </Piece>
  </UnstructuredGrid>
</VTKFile>
