<?xml version="1.0" ?> 
<!-- 
# vtk DataFile Version 3.0
-->
<VTKFile type="UnstructuredGrid" version="0.1" compressor="vtkZLibDataCompressor" byte_order="LittleEndian">
  <UnstructuredGrid>
    <FieldData>
      <DataArray type="Float64" Name="TIME" NumberOfTuples="1" format="ascii">
1.000000000000000e+00 
      </DataArray>
    </FieldData>

    <Piece NumberOfPoints="585" NumberOfCells="0" >
      <Points>
        <DataArray type="Float64" NumberOfComponents="3" format="ascii">
5.000000000000000e-01 8.660254037839999e-01 1.000000000000000e+00
0.000000000000000e+00 1.000000000000000e+00 1.000000000000000e+00
0.000000000000000e+00 1.000000000000000e+00 1.500000000000000e+00
5.000000000000000e-01 8.660254037839999e-01 1.500000000000000e+00
8.660254037839999e-01 5.000000000000000e-01 1.000000000000000e+00
5.000000000000000e-01 8.660254037839999e-01 1.000000000000000e+00
5.000000000000000e-01 8.660254037839999e-01 1.500000000000000e+00
8.660254037839999e-01 5.000000000000000e-01 1.500000000000000e+00
5.000000000000000e-01 8.660254037839999e-01 5.000000000000000e-01
0.000000000000000e+00 1.000000000000000e+00 5.000000000000000e-01
0.000000000000000e+00 1.000000000000000e+00 1.000000000000000e+00
5.000000000000000e-01 8.660254037839999e-01 1.000000000000000e+00
8.660254037839999e-01 5.000000000000000e-01 5.000000000000000e-01
5.000000000000000e-01 8.660254037839999e-01 5.000000000000000e-01
5.000000000000000e-01 8.660254037839999e-01 1.000000000000000e+00
8.660254037839999e-01 5.000000000000000e-01 1.000000000000000e+00
1.000000000000000e+00 0.000000000000000e+00 5.000000000000000e-01
8.660254037839999e-01 5.000000000000000e-01 5.000000000000000e-01
8.660254037839999e-01 5.000000000000000e-01 1.000000000000000e+00
1.000000000000000e+00 0.000000000000000e+00 1.000000000000000e+00
8.660254037839999e-01 5.000000000000000e-01 0.000000000000000e+00
5.000000000000000e-01 8.660254037839999e-01 0.000000000000000e+00
5.000000000000000e-01 8.660254037839999e-01 5.000000000000000e-01
8.660254037839999e-01 5.000000000000000e-01 5.000000000000000e-01
1.000000000000000e+00 0.000000000000000e+00 0.000000000000000e+00
8.660254037839999e-01 5.000000000000000e-01 0.000000000000000e+00
8.660254037839999e-01 5.000000000000000e-01 5.000000000000000e-01
1.000000000000000e+00 0.000000000000000e+00 5.000000000000000e-01
1.500000000000000e+00 3.000000000000000e-01 2.500000000000000e+00
1.500000000000000e+00 3.000000000000000e-01 3.000000000000000e+00
2.000000000000000e+00 3.000000000000000e-01 3.000000000000000e+00
2.000000000000000e+00 3.000000000000000e-01 2.500000000000000e+00
1.500000000000000e+00 3.000000000000000e-01 3.000000000000000e+00
1.500000000000000e+00 3.000000000000000e-01 3.500000000000000e+00
2.000000000000000e+00 3.000000000000000e-01 3.500000000000000e+00
2.000000000000000e+00 3.000000000000000e-01 3.000000000000000e+00
1.000000000000000e+00 3.000000000000000e-01 2.500000000000000e+00
1.000000000000000e+00 3.000000000000000e-01 3.000000000000000e+00
1.500000000000000e+00 3.000000000000000e-01 3.000000000000000e+00
1.500000000000000e+00 3.000000000000000e-01 2.500000000000000e+00
1.000000000000000e+00 3.000000000000000e-01 3.000000000000000e+00
1.000000000000000e+00 3.000000000000000e-01 3.500000000000000e+00
1.500000000000000e+00 3.000000000000000e-01 3.500000000000000e+00
1.500000000000000e+00 3.000000000000000e-01 3.000000000000000e+00
5.000000000000000e-01 3.000000000000000e-01 2.500000000000000e+00
5.000000000000000e-01 3.000000000000000e-01 3.000000000000000e+00
1.000000000000000e+00 3.000000000000000e-01 3.000000000000000e+00
1.000000000000000e+00 3.000000000000000e-01 2.500000000000000e+00
5.000000000000000e-01 3.000000000000000e-01 3.000000000000000e+00
5.000000000000000e-01 3.000000000000000e-01 3.500000000000000e+00
1.000000000000000e+00 3.000000000000000e-01 3.500000000000000e+00
1.000000000000000e+00 3.000000000000000e-01 3.000000000000000e+00
0.000000000000000e+00 3.000000000000000e-01 2.500000000000000e+00
0.000000000000000e+00 3.000000000000000e-01 3.000000000000000e+00
5.000000000000000e-01 3.000000000000000e-01 3.000000000000000e+00
5.000000000000000e-01 3.000000000000000e-01 2.500000000000000e+00
0.000000000000000e+00 3.000000000000000e-01 3.000000000000000e+00
0.000000000000000e+00 3.000000000000000e-01 3.500000000000000e+00
5.000000000000000e-01 3.000000000000000e-01 3.500000000000000e+00
5.000000000000000e-01 3.000000000000000e-01 3.000000000000000e+00
5.000000000000000e-01 8.660254037839999e-01 6.000000000000000e+00
0.000000000000000e+00 1.000000000000000e+00 6.000000000000000e+00
0.000000000000000e+00 1.000000000000000e+00 6.500000000000000e+00
5.000000000000000e-01 8.660254037839999e-01 6.500000000000000e+00
2.588190451030000e-01 9.659258262890000e-01 6.000000000000000e+00
0.000000000000000e+00 1.000000000000000e+00 6.250000000000000e+00
2.588190451030000e-01 9.659258262890000e-01 6.500000000000000e+00
5.000000000000000e-01 8.660254037839999e-01 6.250000000000000e+00
8.660254037839999e-01 5.000000000000000e-01 6.000000000000000e+00
5.000000000000000e-01 8.660254037839999e-01 6.000000000000000e+00
5.000000000000000e-01 8.660254037839999e-01 6.500000000000000e+00
8.660254037839999e-01 5.000000000000000e-01 6.500000000000000e+00
7.071067811870000e-01 7.071067811870000e-01 6.000000000000000e+00
5.000000000000000e-01 8.660254037839999e-01 6.250000000000000e+00
7.071067811870000e-01 7.071067811870000e-01 6.500000000000000e+00
8.660254037839999e-01 5.000000000000000e-01 6.250000000000000e+00
5.000000000000000e-01 8.660254037839999e-01 5.500000000000000e+00
0.000000000000000e+00 1.000000000000000e+00 5.500000000000000e+00
0.000000000000000e+00 1.000000000000000e+00 6.000000000000000e+00
5.000000000000000e-01 8.660254037839999e-01 6.000000000000000e+00
2.588190451030000e-01 9.659258262890000e-01 5.500000000000000e+00
0.000000000000000e+00 1.000000000000000e+00 5.750000000000000e+00
2.588190451030000e-01 9.659258262890000e-01 6.000000000000000e+00
5.000000000000000e-01 8.660254037839999e-01 5.750000000000000e+00
8.660254037839999e-01 5.000000000000000e-01 5.500000000000000e+00
5.000000000000000e-01 8.660254037839999e-01 5.500000000000000e+00
5.000000000000000e-01 8.660254037839999e-01 6.000000000000000e+00
8.660254037839999e-01 5.000000000000000e-01 6.000000000000000e+00
7.071067811870000e-01 7.071067811870000e-01 5.500000000000000e+00
5.000000000000000e-01 8.660254037839999e-01 5.750000000000000e+00
7.071067811870000e-01 7.071067811870000e-01 6.000000000000000e+00
8.660254037839999e-01 5.000000000000000e-01 5.750000000000000e+00
1.000000000000000e+00 0.000000000000000e+00 5.500000000000000e+00
8.660254037839999e-01 5.000000000000000e-01 5.500000000000000e+00
8.660254037839999e-01 5.000000000000000e-01 6.000000000000000e+00
1.000000000000000e+00 0.000000000000000e+00 6.000000000000000e+00
9.659258262890000e-01 2.588190451030000e-01 5.500000000000000e+00
8.660254037839999e-01 5.000000000000000e-01 5.750000000000000e+00
9.659258262890000e-01 2.588190451030000e-01 6.000000000000000e+00
1.000000000000000e+00 0.000000000000000e+00 5.750000000000000e+00
8.660254037839999e-01 5.000000000000000e-01 5.000000000000000e+00
5.000000000000000e-01 8.660254037839999e-01 5.000000000000000e+00
5.000000000000000e-01 8.660254037839999e-01 5.500000000000000e+00
8.660254037839999e-01 5.000000000000000e-01 5.500000000000000e+00
7.071067811870000e-01 7.071067811870000e-01 5.000000000000000e+00
5.000000000000000e-01 8.660254037839999e-01 5.250000000000000e+00
7.071067811870000e-01 7.071067811870000e-01 5.500000000000000e+00
8.660254037839999e-01 5.000000000000000e-01 5.250000000000000e+00
1.000000000000000e+00 0.000000000000000e+00 5.000000000000000e+00
8.660254037839999e-01 5.000000000000000e-01 5.000000000000000e+00
8.660254037839999e-01 5.000000000000000e-01 5.500000000000000e+00
1.000000000000000e+00 0.000000000000000e+00 5.500000000000000e+00
9.659258262890000e-01 2.588190451030000e-01 5.000000000000000e+00
8.660254037839999e-01 5.000000000000000e-01 5.250000000000000e+00
9.659258262890000e-01 2.588190451030000e-01 5.500000000000000e+00
1.000000000000000e+00 0.000000000000000e+00 5.250000000000000e+00
1.500000000000000e+00 3.000000000000000e-01 7.500000000000000e+00
1.500000000000000e+00 3.000000000000000e-01 8.000000000000000e+00
2.000000000000000e+00 3.000000000000000e-01 8.000000000000000e+00
2.000000000000000e+00 3.000000000000000e-01 7.500000000000000e+00
1.500000000000000e+00 3.000000000000000e-01 7.750000000000000e+00
1.750000000000000e+00 3.000000000000000e-01 8.000000000000000e+00
2.000000000000000e+00 3.000000000000000e-01 7.750000000000000e+00
1.750000000000000e+00 3.000000000000000e-01 7.500000000000000e+00
1.500000000000000e+00 3.000000000000000e-01 8.000000000000000e+00
1.500000000000000e+00 3.000000000000000e-01 8.500000000000000e+00
2.000000000000000e+00 3.000000000000000e-01 8.500000000000000e+00
2.000000000000000e+00 3.000000000000000e-01 8.000000000000000e+00
1.500000000000000e+00 3.000000000000000e-01 8.250000000000000e+00
1.750000000000000e+00 3.000000000000000e-01 8.500000000000000e+00
2.000000000000000e+00 3.000000000000000e-01 8.250000000000000e+00
1.750000000000000e+00 3.000000000000000e-01 8.000000000000000e+00
1.000000000000000e+00 3.000000000000000e-01 7.500000000000000e+00
1.000000000000000e+00 3.000000000000000e-01 8.000000000000000e+00
1.500000000000000e+00 3.000000000000000e-01 8.000000000000000e+00
1.500000000000000e+00 3.000000000000000e-01 7.500000000000000e+00
1.000000000000000e+00 3.000000000000000e-01 7.750000000000000e+00
1.250000000000000e+00 3.000000000000000e-01 8.000000000000000e+00
1.500000000000000e+00 3.000000000000000e-01 7.750000000000000e+00
1.250000000000000e+00 3.000000000000000e-01 7.500000000000000e+00
1.000000000000000e+00 3.000000000000000e-01 8.000000000000000e+00
1.000000000000000e+00 3.000000000000000e-01 8.500000000000000e+00
1.500000000000000e+00 3.000000000000000e-01 8.500000000000000e+00
1.500000000000000e+00 3.000000000000000e-01 8.000000000000000e+00
[...]
  <PointData>
        <DataArray type="Int32" Name="coupling_id" format="ascii">
1
1
1
1
1
1
1
1
1
1
1
1
1
1
1
1
1
1
1
1
1
1
1
1
1
1
1
1
2
2
2
2
2
2
2
2
2
2
2
2
2
2
2
2
2
2
2
2
2
2
2
2
2
2
2
2
2
2
2
2
3
3
3
3
3
3
3
3
3
3
3
3
3
3
3
3
3
3
3
3
3
3
3
3
3
3
3
3
3
3
3
3
3
3
3
3
3
3
3
3
3
3
3
3
3
3
3
3
3
3
3
3
3
3
3
3
4
4
4
4
4
4
4
4
4
4
4
4
4
4
4
4
4
4
4
4
4
4
4
4
4
4
4
4
4
4
4
4
4
4
4
4
4
4
4
4
4
4
4
4
4
4
4
4
4
4
4
4
4
4
4
4
4
4
4
4
4
4
4
4
5
5
5
5
5
5
5
5
5
5
5
5
5
5
5
5
5
5
5
5
5
5
5
5
5
5
5
5
5
5
5
5
5
5
5
5
5
5
5
5
5
5
5
5
5
5
5
5
5
5
5
5
5
5
5
5
5
5
5
5
5
5
5
6
6
6
6
6
6
6
6
6
6
6
6
6
6
6
6
6
6
6
6
6
6
6
6
6
6
6
6
6
6
6
6
6
6
6
6
6
6
6
6
6
6
6
6
6
6
6
6
6
6
6
6
6
6
6
6
6
6
6
6
6
6
6
6
6
6
6
6
6
6
6
6
7
7
7
7
7
7
7
7
7
7
7
7
7
7
7
7
7
7
7
7
7
7
7
7
7
7
7
7
7
7
7
7
7
7
7
7
7
7
7
7
7
7
8
8
8
8
8
8
8
8
8
8
8
8
8
8
8
8
8
8
8
8
8
8
8
8
8
8
8
8
8
8
8
8
8
8
8
8
8
8
8
8
8
8
8
8
8
8
8
8
9
9
9
9
9
9
9
9
9
9
9
9
9
9
9
9
9
9
9
9
9
9
9
9
9
9
9
9
9
9
9
9
9
9
9
9
9
9
9
9
9
9
9
9
9
9
9
9
9
9
9
9
9
9
9
9
9
9
9
9
9
9
9
9
9
9
9
9
9
9
9
9
9
9
9
9
9
9
9
9
9
9
9
9
10
10
10
10
10
10
10
10
10
10
10
10
10
10
10
10
10
10
10
10
10
10
10
10
10
10
10
10
10
10
10
10
10
10
10
10
10
10
10
10
10
10
10
10
10
10
10
10
10
10
10
10
10
10
10
10
10
10
10
10
10
10
10
10
10
10
10
10
10
10
10
10
10
10
10
10
10
10
10
10
10
10
10
10
10
10
10
10
10
10
10
10
10
10
10
10
        </DataArray>
        <DataArray type="Float64" Name="displacement" NumberOfComponents="3" format="ascii">
-8.249535490553461e-03 4.828336171928349e-03 -1.034182166808706e-02
0.000000000000000e+00 0.000000000000000e+00 0.000000000000000e+00
0.000000000000000e+00 0.000000000000000e+00 0.000000000000000e+00
8.769053173271812e-03 6.600039796583934e-02 -1.734149672741725e-02
1.613534331768540e-02 4.390429064810364e-02 -4.261252298330298e-03
-8.249535490553461e-03 4.828336171928349e-03 -1.034182166808706e-02
8.769053173271812e-03 6.600039796583934e-02 -1.734149672741725e-02
2.798237140233562e-02 6.847075276351522e-02 -5.315161862615492e-03
7.995941375572579e-04 4.107554588873241e-03 -4.790525805401569e-03
0.000000000000000e+00 0.000000000000000e+00 0.000000000000000e+00
0.000000000000000e+00 0.000000000000000e+00 0.000000000000000e+00
-8.249535490553461e-03 4.828336171928349e-03 -1.034182166808706e-02
5.117642603916894e-03 6.295571753747620e-03 -4.845219667645617e-03
7.995941375572579e-04 4.107554588873241e-03 -4.790525805401569e-03
-8.249535490553461e-03 4.828336171928349e-03 -1.034182166808706e-02
1.613534331768540e-02 4.390429064810364e-02 -4.261252298330298e-03
1.285540360433468e-02 7.011522251570482e-03 1.728089895531548e-02
5.117642603916894e-03 6.295571753747620e-03 -4.845219667645617e-03
1.613534331768540e-02 4.390429064810364e-02 -4.261252298330298e-03
3.804991339908614e-02 4.658538279355095e-02 1.684567720180485e-02
-1.185623257939650e-02 -2.496334025103930e-02 -4.695161016927536e-03
8.378991508189992e-04 -1.379572591131262e-02 -5.522690394429512e-03
7.995941375572579e-04 4.107554588873241e-03 -4.790525805401569e-03
5.117642603916894e-03 6.295571753747620e-03 -4.845219667645617e-03
4.940925038527499e-03 -7.204593903895982e-03 1.375174454156050e-02
-1.185623257939650e-02 -2.496334025103930e-02 -4.695161016927536e-03
5.117642603916894e-03 6.295571753747620e-03 -4.845219667645617e-03
1.285540360433468e-02 7.011522251570482e-03 1.728089895531548e-02
-2.220446049250313e-16 -4.440892098500626e-16 -4.440892098500626e-16
-2.220446049250313e-16 5.551115123125783e-17 -4.440892098500626e-16
0.000000000000000e+00 -5.551115123125783e-17 -4.440892098500626e-16
-2.220446049250313e-16 -1.665334536937735e-16 -4.440892098500626e-16
-2.220446049250313e-16 5.551115123125783e-17 -4.440892098500626e-16
2.220446049250313e-16 1.665334536937735e-16 0.000000000000000e+00
4.440892098500626e-16 1.665334536937735e-16 -1.332267629550188e-15
0.000000000000000e+00 -5.551115123125783e-17 -4.440892098500626e-16
0.000000000000000e+00 -2.775557561562891e-16 0.000000000000000e+00
-2.220446049250313e-16 -2.220446049250313e-16 -8.881784197001252e-16
-2.220446049250313e-16 5.551115123125783e-17 -4.440892098500626e-16
-2.220446049250313e-16 -4.440892098500626e-16 -4.440892098500626e-16
-2.220446049250313e-16 -2.220446049250313e-16 -8.881784197001252e-16
2.220446049250313e-16 3.885780586188048e-16 -8.881784197001252e-16
2.220446049250313e-16 1.665334536937735e-16 0.000000000000000e+00
-2.220446049250313e-16 5.551115123125783e-17 -4.440892098500626e-16
-1.110223024625157e-16 -1.665334536937735e-16 -4.440892098500626e-16
2.220446049250313e-16 0.000000000000000e+00 4.440892098500626e-16
-2.220446049250313e-16 -2.220446049250313e-16 -8.881784197001252e-16
0.000000000000000e+00 -2.775557561562891e-16 0.000000000000000e+00
2.220446049250313e-16 0.000000000000000e+00 4.440892098500626e-16
1.110223024625157e-16 -5.551115123125783e-17 0.000000000000000e+00
2.220446049250313e-16 3.885780586188048e-16 -8.881784197001252e-16
-2.220446049250313e-16 -2.220446049250313e-16 -8.881784197001252e-16
0.000000000000000e+00 0.000000000000000e+00 0.000000000000000e+00
0.000000000000000e+00 0.000000000000000e+00 0.000000000000000e+00
2.220446049250313e-16 0.000000000000000e+00 4.440892098500626e-16
-1.110223024625157e-16 -1.665334536937735e-16 -4.440892098500626e-16
0.000000000000000e+00 0.000000000000000e+00 0.000000000000000e+00
0.000000000000000e+00 0.000000000000000e+00 0.000000000000000e+00
1.110223024625157e-16 -5.551115123125783e-17 0.000000000000000e+00
2.220446049250313e-16 0.000000000000000e+00 4.440892098500626e-16
-2.030743950475200e-04 -3.747111772774980e-04 8.243641000049706e-06
0.000000000000000e+00 0.000000000000000e+00 0.000000000000000e+00
0.000000000000000e+00 0.000000000000000e+00 0.000000000000000e+00
-2.678255536547880e-05 -2.313828936026940e-04 -6.116782346499150e-05
-9.456950698949473e-05 -3.106957496434859e-04 1.520028171064780e-05
0.000000000000000e+00 0.000000000000000e+00 0.000000000000000e+00
4.433501607770118e-05 -1.669225631313331e-04 1.715188972273296e-05
-1.771131418767391e-04 -3.955148828050925e-04 -3.625242464888601e-05
1.169920734505059e-04 5.395504950522767e-05 3.160067701646341e-05
-2.030743950475200e-04 -3.747111772774980e-04 8.243641000049706e-06
-2.678255536547880e-05 -2.313828936026940e-04 -6.116782346499150e-05
-6.791809630291024e-05 -2.432755348533711e-04 1.591287654090223e-05
5.169381694292152e-05 4.574167892179570e-05 1.199383909771257e-04
-1.771131418767391e-04 -3.955148828050925e-04 -3.625242464888601e-05
-1.343889667095866e-04 -2.966431165709604e-04 4.183764363840936e-05
1.632054861455678e-05 -9.608595241050732e-05 2.736751159382322e-05
-1.742186743963758e-05 2.284631973199502e-04 2.113729351549409e-06
0.000000000000000e+00 0.000000000000000e+00 0.000000000000000e+00
0.000000000000000e+00 0.000000000000000e+00 0.000000000000000e+00
-2.030743950475200e-04 -3.747111772774980e-04 8.243641000049706e-06
-5.137452133580078e-05 7.579145940750376e-05 2.686905485926872e-05
0.000000000000000e+00 0.000000000000000e+00 0.000000000000000e+00
-9.456950698949473e-05 -3.106957496434859e-04 1.520028171064780e-05
2.200259108375846e-05 1.394070121257807e-04 6.096566399005354e-05
-4.498905373573336e-06 2.545785195406935e-04 -5.762092428973631e-06
-1.742186743963758e-05 2.284631973199502e-04 2.113729351549409e-06
-2.030743950475200e-04 -3.747111772774980e-04 8.243641000049706e-06
1.169920734505059e-04 5.395504950522767e-05 3.160067701646341e-05
1.633178184441419e-04 4.340438603369634e-04 9.924733105570738e-06
2.200259108375846e-05 1.394070121257807e-04 6.096566399005354e-05
5.169381694292152e-05 4.574167892179570e-05 1.199383909771257e-04
2.236657753406091e-04 2.948309425333528e-04 -2.784771398367525e-06
2.281471687870518e-04 3.161702052266808e-04 -1.639583356203289e-04
-4.498905373573336e-06 2.545785195406935e-04 -5.762092428973631e-06
1.169920734505059e-04 5.395504950522767e-05 3.160067701646341e-05
1.854805681971161e-04 9.668493072290571e-05 -2.727498407697482e-04
8.621574960865352e-05 2.537098663828452e-04 -1.030224436773253e-04
2.236657753406091e-04 2.948309425333528e-04 -2.784771398367525e-06
1.551530539352086e-04 6.913368560690358e-05 -1.197131933414752e-04
1.403222482672106e-04 1.693207050390811e-04 -2.415358159062464e-04
2.042073705124103e-04 5.181212338849495e-04 7.487281159868076e-05
-2.588237478579059e-05 2.310280633183170e-04 -4.384949438218655e-06
-1.742186743963758e-05 2.284631973199502e-04 2.113729351549409e-06
-4.498905373573336e-06 2.545785195406935e-04 -5.762092428973631e-06
4.501924848065997e-05 3.168966594648825e-04 -1.029170940114454e-05
-1.367206497904228e-05 2.349050954200127e-04 -1.629896724963942e-05
1.633178184441419e-04 4.340438603369634e-04 9.924733105570738e-06
-4.144457764976295e-06 2.789838549390744e-04 3.331981697218822e-05
1.296630300106072e-03 1.212409627362486e-03 -1.920495608880302e-04
2.042073705124103e-04 5.181212338849495e-04 7.487281159868076e-05
-4.498905373573336e-06 2.545785195406935e-04 -5.762092428973631e-06
2.281471687870518e-04 3.161702052266808e-04 -1.639583356203289e-04
5.365283886882288e-04 8.349435506391223e-04 7.928073788576739e-05
-4.144457764976295e-06 2.789838549390744e-04 3.331981697218822e-05
8.621574960865352e-05 2.537098663828452e-04 -1.030224436773253e-04
5.261222007730826e-04 5.584544087523108e-04 -1.535178212224153e-04
0.000000000000000e+00 1.720845688168993e-15 0.000000000000000e+00
2.220446049250313e-16 8.881784197001252e-16 1.776356839400250e-15
4.440892098500626e-16 5.551115123125783e-17 1.776356839400250e-15
0.000000000000000e+00 2.109423746787797e-15 8.881784197001252e-16
0.000000000000000e+00 1.332267629550188e-15 8.881784197001252e-16
0.000000000000000e+00 5.551115123125783e-16 1.776356839400250e-15
0.000000000000000e+00 1.221245327087672e-15 8.881784197001252e-16
0.000000000000000e+00 2.053912595556540e-15 8.881784197001252e-16
2.220446049250313e-16 8.881784197001252e-16 1.776356839400250e-15
6.661338147750939e-16 -2.053912595556540e-15 3.552713678800501e-15
-2.220446049250313e-16 -5.551115123125783e-17 -3.552713678800501e-15
4.440892098500626e-16 5.551115123125783e-17 1.776356839400250e-15
1.110223024625157e-15 1.665334536937735e-16 3.552713678800501e-15
4.440892098500626e-16 -1.887379141862766e-15 1.776356839400250e-15
-2.220446049250313e-16 -7.771561172376096e-16 0.000000000000000e+00
0.000000000000000e+00 5.551115123125783e-16 1.776356839400250e-15
-3.330669073875470e-16 1.276756478318930e-15 0.000000000000000e+00
-7.771561172376096e-16 4.996003610813204e-16 -1.776356839400250e-15
2.220446049250313e-16 8.881784197001252e-16 1.776356839400250e-15
0.000000000000000e+00 1.720845688168993e-15 0.000000000000000e+00
-3.330669073875470e-16 6.661338147750939e-16 0.000000000000000e+00
-2.220446049250313e-16 7.216449660063518e-16 -8.881784197001252e-16
0.000000000000000e+00 1.332267629550188e-15 8.881784197001252e-16
0.000000000000000e+00 1.387778780781446e-15 0.000000000000000e+00
-7.771561172376096e-16 4.996003610813204e-16 -1.776356839400250e-15
2.220446049250313e-16 7.771561172376096e-16 0.000000000000000e+00
6.661338147750939e-16 -2.053912595556540e-15 3.552713678800501e-15
2.220446049250313e-16 8.881784197001252e-16 1.776356839400250e-15
0.000000000000000e+00 6.661338147750939e-16 0.000000000000000e+00
2.220446049250313e-16 -1.665334536937735e-16 0.000000000000000e+00
1.110223024625157e-15 1.665334536937735e-16 3.552713678800501e-15
-2.220446049250313e-16 7.216449660063518e-16 -8.881784197001252e-16
-5.551115123125783e-17 9.992007221626409e-16 8.881784197001252e-16
-2.220446049250313e-16 5.551115123125783e-17 0.000000000000000e+00
-7.771561172376096e-16 4.996003610813204e-16 -1.776356839400250e-15
-3.330669073875470e-16 1.276756478318930e-15 0.000000000000000e+00
-3.885780586188048e-16 6.106226635438361e-16 1.776356839400250e-15
-4.440892098500626e-16 2.775557561562891e-16 0.000000000000000e+00
-3.330669073875470e-16 6.661338147750939e-16 0.000000000000000e+00
-3.330669073875470e-16 1.332267629550188e-15 8.881784197001252e-16
-2.220446049250313e-16 5.551115123125783e-17 0.000000000000000e+00
-5.551115123125783e-17 2.220446049250313e-16 0.000000000000000e+00
2.220446049250313e-16 7.771561172376096e-16 0.000000000000000e+00
-7.771561172376096e-16 4.996003610813204e-16 -1.776356839400250e-15
-1.665334536937735e-16 5.551115123125783e-17 0.000000000000000e+00
0.000000000000000e+00 5.551115123125783e-16 0.000000000000000e+00
0.000000000000000e+00 6.661338147750939e-16 0.000000000000000e+00
-4.440892098500626e-16 2.775557561562891e-16 0.000000000000000e+00
0.000000000000000e+00 0.000000000000000e+00 0.000000000000000e+00
0.000000000000000e+00 0.000000000000000e+00 0.000000000000000e+00
-2.220446049250313e-16 5.551115123125783e-17 0.000000000000000e+00
-5.551115123125783e-17 9.992007221626409e-16 8.881784197001252e-16
0.000000000000000e+00 0.000000000000000e+00 0.000000000000000e+00
-1.387778780781446e-16 1.665334536937735e-16 0.000000000000000e+00
-3.885780586188048e-16 6.106226635438361e-16 1.776356839400250e-15
1.110223024625157e-16 -2.220446049250313e-16 -8.881784197001252e-16
0.000000000000000e+00 0.000000000000000e+00 0.000000000000000e+00
0.000000000000000e+00 0.000000000000000e+00 0.000000000000000e+00
-5.551115123125783e-17 2.220446049250313e-16 0.000000000000000e+00
-2.220446049250313e-16 5.551115123125783e-17 0.000000000000000e+00
0.000000000000000e+00 0.000000000000000e+00 0.000000000000000e+00
-2.775557561562891e-17 0.000000000000000e+00 0.000000000000000e+00
-1.665334536937735e-16 5.551115123125783e-17 0.000000000000000e+00
-1.387778780781446e-16 1.665334536937735e-16 0.000000000000000e+00
-2.046509842720812e-04 -3.992475385057315e-04 -1.417314794238678e-05
0.000000000000000e+00 0.000000000000000e+00 0.000000000000000e+00
0.000000000000000e+00 0.000000000000000e+00 0.000000000000000e+00
-7.316118257100213e-05 -3.604930983137633e-04 -2.141592943338821e-05
-4.108212704517777e-05 -2.296264453881536e-04 2.652038788397704e-05
0.000000000000000e+00 0.000000000000000e+00 0.000000000000000e+00
1.166861010962750e-04 -5.671326264844456e-05 7.543984420266270e-06
-1.307162292857877e-04 -3.181177540876323e-04 -1.553973305590262e-05
-8.471138971088976e-05 -3.316352511900655e-04 1.345447915213072e-05
1.125540887957355e-04 3.862954982747357e-05 1.752730015525117e-05
-2.046509842720812e-04 -3.992475385057315e-04 -1.417314794238678e-05
-7.316118257100213e-05 -3.604930983137633e-04 -2.141592943338821e-05
-8.212074402125236e-05 -2.587725209184932e-04 1.302864456853570e-05
1.245559958251707e-05 -4.876422636912459e-06 1.200091982340723e-04
-1.307162292857877e-04 -3.181177540876323e-04 -1.553973305590262e-05
-1.294469729254955e-04 -3.083053654246992e-04 5.489704325079003e-05
7.051782722200528e-06 -1.065797467040275e-04 2.250224842192949e-05
-8.394185944515797e-05 -1.797023861792590e-04 7.308269984918070e-05
-4.877690793547718e-06 2.154936269177510e-04 5.602377482816223e-06
0.000000000000000e+00 0.000000000000000e+00 0.000000000000000e+00
0.000000000000000e+00 0.000000000000000e+00 0.000000000000000e+00
-2.046509842720812e-04 -3.992475385057315e-04 -1.417314794238678e-05
-3.265848924710602e-05 7.593249357251697e-05 2.621346415310200e-05
0.000000000000000e+00 0.000000000000000e+00 0.000000000000000e+00
-4.108212704517777e-05 -2.296264453881536e-04 2.652038788397704e-05
-5.607379453376193e-06 8.878214753615943e-05 5.126403558008974e-05
-1.520284669687122e-05 -1.523813673709462e-05 5.261498147390853e-05
-1.950181804499795e-05 2.535113478130402e-04 2.289311201586486e-05
-4.877690793547718e-06 2.154936269177510e-04 5.602377482816223e-06
-2.046509842720812e-04 -3.992475385057315e-04 -1.417314794238678e-05
1.125540887957355e-04 3.862954982747357e-05 1.752730015525117e-05
1.205745652397283e-04 3.672754634210795e-04 -1.607441523887587e-06
-5.607379453376193e-06 8.878214753615943e-05 5.126403558008974e-05
1.245559958251707e-05 -4.876422636912459e-06 1.200091982340723e-04
1.769825115750523e-04 2.160326293269010e-04 -1.667729511822813e-05
2.797276303384555e-04 4.283969167229174e-04 9.702811252587651e-05
1.720816570760508e-04 2.651572663913389e-04 -1.468051670574511e-04
-1.950181804499795e-05 2.535113478130402e-04 2.289311201586486e-05
1.125540887957355e-04 3.862954982747357e-05 1.752730015525117e-05
1.413157301841661e-04 5.076352152894843e-05 -2.562662264544713e-04
1.022793425131674e-04 2.573231933694631e-04 -9.539415293069453e-05
1.769825115750523e-04 2.160326293269010e-04 -1.667729511822813e-05
1.371380544608058e-04 5.561432253836651e-05 -1.165247335013220e-04
1.309435634460066e-04 1.592799210098644e-04 -2.201754941530965e-04
1.370154444955141e-04 1.666083864036438e-04 -1.309203797212888e-04
1.771566926298540e-04 4.963946932555752e-04 6.205349859733644e-05
-2.942553854229368e-05 2.089015579390674e-04 -1.080659338903445e-05
-4.877690793547718e-06 2.154936269177510e-04 5.602377482816223e-06
-1.950181804499795e-05 2.535113478130402e-04 2.289311201586486e-05
3.248766593055841e-05 3.281615976822305e-04 6.684872555950960e-06
-1.377023129511823e-05 2.209514145401492e-04 -6.880334197489901e-06
1.205745652397283e-04 3.672754634210795e-04 -1.607441523887587e-06
1.174705536588494e-05 2.838419495444500e-04 3.801999569574832e-05
5.141412091114184e-05 2.859254713146742e-04 -1.857630958390644e-05
1.224417681182866e-03 1.175728527640884e-03 -1.820924279307690e-04
1.771566926298540e-04 4.963946932555752e-04 6.205349859733644e-05
-1.950181804499795e-05 2.535113478130402e-04 2.289311201586486e-05
1.720816570760508e-04 2.651572663913389e-04 -1.468051670574511e-04
5.469573938087224e-04 8.190903317373266e-04 7.974480464589817e-05
1.174705536588494e-05 2.838419495444500e-04 3.801999569574832e-05
1.022793425131674e-04 2.573231933694631e-04 -9.539415293069453e-05
5.323042241309750e-04 5.459329136075804e-04 -1.473999792480640e-04
1.244413554400969e-04 3.648045052863647e-04 1.555272081787962e-05
1.332267629550188e-15 -2.442490654175344e-15 1.776356839400250e-15
1.110223024625157e-15 -4.107825191113079e-15 1.776356839400250e-15
8.881784197001252e-16 -6.494804694057166e-15 1.776356839400250e-15
1.332267629550188e-15 -5.162537064506978e-15 1.776356839400250e-15
1.332267629550188e-15 -3.275157922644212e-15 1.776356839400250e-15
1.110223024625157e-15 -5.329070518200751e-15 1.776356839400250e-15
1.332267629550188e-15 -5.884182030513330e-15 1.776356839400250e-15
1.332267629550188e-15 -3.774758283725532e-15 1.776356839400250e-15
1.332267629550188e-15 -4.607425552194400e-15 1.776356839400250e-15
1.110223024625157e-15 -4.107825191113079e-15 1.776356839400250e-15
4.440892098500626e-16 -5.773159728050814e-15 1.776356839400250e-15
-1.776356839400250e-15 -6.383782391594650e-15 0.000000000000000e+00
8.881784197001252e-16 -6.494804694057166e-15 1.776356839400250e-15
1.110223024625157e-15 -4.773959005888173e-15 1.776356839400250e-15
-2.220446049250313e-16 -6.383782391594650e-15 1.776356839400250e-15
4.440892098500626e-16 -6.716849298982197e-15 1.776356839400250e-15
1.110223024625157e-15 -5.329070518200751e-15 1.776356839400250e-15
4.440892098500626e-16 -5.939693181744587e-15 1.776356839400250e-15
1.110223024625157e-15 -5.551115123125783e-16 0.000000000000000e+00
1.554312234475219e-15 -1.609823385706477e-15 1.776356839400250e-15
1.110223024625157e-15 -4.107825191113079e-15 1.776356839400250e-15
1.332267629550188e-15 -2.442490654175344e-15 1.776356839400250e-15
8.881784197001252e-16 -9.436895709313831e-16 1.776356839400250e-15
1.776356839400250e-15 -2.720046410331634e-15 1.776356839400250e-15
1.332267629550188e-15 -3.275157922644212e-15 1.776356839400250e-15
1.332267629550188e-15 -1.221245327087672e-15 1.776356839400250e-15
1.110223024625157e-15 -1.942890293094024e-15 1.776356839400250e-15
1.554312234475219e-15 -1.609823385706477e-15 1.776356839400250e-15
4.440892098500626e-16 -2.831068712794149e-15 0.000000000000000e+00
4.440892098500626e-16 -5.773159728050814e-15 1.776356839400250e-15
1.110223024625157e-15 -4.107825191113079e-15 1.776356839400250e-15
8.881784197001252e-16 -2.164934898019055e-15 0.000000000000000e+00
4.440892098500626e-16 -4.440892098500626e-15 1.776356839400250e-15