<?xml version="1.0" ?> 
<!-- 
# vtk DataFile Version 3.0
-->
<VTKFile type="UnstructuredGrid" version="0.1" compressor="vtkZLibDataCompressor" byte_order="LittleEndian">
  <UnstructuredGrid>
    <FieldData>
      <DataArray type="Float64" Name="TIME" NumberOfTuples="1" format="ascii">
3.000000000000000e+00 
      </DataArray>
    </FieldData>

    <Piece NumberOfPoints="18" NumberOfCells="0" >
      <Points>
        <DataArray type="Float64" NumberOfComponents="3" format="ascii">
1.000000000000000e+00 0.000000000000000e+00 9.929203673210001e+00
7.071067811870000e-01 7.071067811870000e-01 1.071460183660000e+01
9.229551825141720e-01 3.823005540597842e-01 1.032190275490529e+01
7.071067811870000e-01 7.071067811870000e-01 1.071460183660000e+01
0.000000000000000e+00 1.000000000000000e+00 1.150000000000000e+01
3.823005540592515e-01 9.229551825133410e-01 1.110730091829987e+01
1.000000000000000e-01 3.000000000000000e-01 1.250000000000000e+01
1.150000000000000e+00 3.000000000000000e-01 1.305000000000000e+01
6.250000000000000e-01 3.000000000000000e-01 1.277500000000000e+01
1.150000000000000e+00 3.000000000000000e-01 1.305000000000000e+01
2.200000000000000e+00 3.000000000000000e-01 1.360000000000000e+01
1.675000000000000e+00 3.000000000000000e-01 1.332500000000000e+01
1.000000000000000e+00 0.000000000000000e+00 1.492920367320000e+01
7.071067811870000e-01 7.071067811870000e-01 1.571460183660000e+01
9.229551825146231e-01 3.823005540599710e-01 1.532190275490029e+01
7.071067811870000e-01 7.071067811870000e-01 1.571460183660000e+01
0.000000000000000e+00 1.000000000000000e+00 1.650000000000000e+01
3.823005540592515e-01 9.229551825133410e-01 1.610730091829987e+01
        </DataArray>
      </Points>

      <Cells>
        <DataArray type="Int32" Name="connectivity" format="ascii">

        </DataArray>
        <DataArray type="Int32" Name="offsets" format="ascii">

        </DataArray>
        <DataArray type="UInt8" Name="types" format="ascii">

        </DataArray>
      </Cells>

  <PointData>
        <DataArray type="Float64" Name="displacement" NumberOfComponents="3" format="ascii">
4.152766020603837e-01 3.812278204324593e-01 5.011890794363083e-02
1.658544639857118e-02 1.209435819151019e-01 -6.110604602449499e-03
1.348211949633056e-01 2.452142812849447e-01 3.209747275292330e-03
1.658544639857118e-02 1.209435819151019e-01 -6.110604602449499e-03
0.000000000000000e+00 0.000000000000000e+00 0.000000000000000e+00
-1.054703279965069e-02 3.131395335115728e-02 -2.108509515846180e-03
0.000000000000000e+00 0.000000000000000e+00 0.000000000000000e+00
-1.536579672670234e-01 3.867975551013916e-01 4.713905388113915e-02
-4.945061574943155e-02 1.174042614749150e-01 1.809675689062296e-02
-1.536579672670234e-01 3.867975551013916e-01 4.713905388113915e-02
-4.779336487600572e-01 1.165973617239259e+00 -7.022395682717786e-03
-2.944271248821952e-01 7.367885650183297e-01 4.145661368167808e-02
2.384415422034336e-01 1.680522775158003e-01 3.212745459530453e-02
3.348207863742902e-03 6.989898106718240e-02 -4.718528312482206e-03
6.523178458786050e-02 1.202206556797589e-01 5.372540858139985e-03
3.348207863742902e-03 6.989898106718240e-02 -4.718528312482206e-03
0.000000000000000e+00 0.000000000000000e+00 0.000000000000000e+00
-1.644590898840015e-02 1.295208597509934e-02 -7.268266181480243e-03
        </DataArray>
        <DataArray type="Float64" Name="lambda" NumberOfComponents="3" format="ascii">
6.019122941041927e-02 6.886271404325168e-03 3.992736089078745e-03
6.043892262154034e-03 6.354432228245324e-03 -1.579040538681518e-04
2.912966492631208e-03 -4.931869074839122e-03 -5.836310824421253e-03
6.043892262154034e-03 6.354432228245324e-03 -1.579040538681518e-04
6.878936264250628e-03 8.667201261381532e-03 3.802855173564135e-03
-8.525412725935293e-04 -8.790341925894048e-04 -1.427105115791960e-04
-1.650966662668682e-03 7.941938687598294e-05 1.298745935943826e-03
1.579962500315246e-03 4.459506324148058e-03 4.842990347675612e-03
2.787905189511200e-03 -3.607207994034765e-03 -5.633654853606817e-04
1.579962500315246e-03 4.459506324148058e-03 4.842990347675612e-03
-1.690816828064924e-02 3.043915171145528e-02 -1.411948422232771e-03
5.404956722711645e-03 3.498362211677113e-03 2.076730928346096e-03
9.078323935873683e-02 2.049941684859933e-02 5.506520832362743e-03
2.552029024251727e-02 2.401483721318714e-02 4.385925998085322e-03
-7.675746775094875e-03 -9.455424112938461e-03 -5.622817417708113e-03
2.552029024251727e-02 2.401483721318714e-02 4.385925998085322e-03
8.540609420836164e-02 1.450250279359126e-01 2.705617121445207e-02
-6.451084392258625e-03 -8.162822499009985e-03 -3.181450355211444e-03
        </DataArray>
        <DataArray type="Int32" Name="uid_0_pair_beam_id" format="ascii">
275
275
275
276
276
276
277
277
277
278
278
278
279
279
279
280
280
280
        </DataArray>
      </PointData>

    </Piece>
  </UnstructuredGrid>
</VTKFile>
