<?xml version="1.0" ?> 
<!-- 
# vtk DataFile Version 3.0
-->
<VTKFile type="UnstructuredGrid" version="0.1" compressor="vtkZLibDataCompressor" byte_order="LittleEndian">
  <UnstructuredGrid>
    <FieldData>
      <DataArray type="Float64" Name="TIME" NumberOfTuples="1" format="ascii">
1.000000000000000e+00 
      </DataArray>
    </FieldData>

    <Piece NumberOfPoints="18" NumberOfCells="0" >
      <Points>
        <DataArray type="Float64" NumberOfComponents="3" format="ascii">
1.000000000000000e-01 3.000000000000000e-01 1.750000000000000e+01
1.150000000000000e+00 3.000000000000000e-01 1.805000000000000e+01
6.250000000000000e-01 3.000000000000000e-01 1.777500000000000e+01
1.150000000000000e+00 3.000000000000000e-01 1.805000000000000e+01
2.200000000000000e+00 3.000000000000000e-01 1.860000000000000e+01
1.675000000000000e+00 3.000000000000000e-01 1.832500000000000e+01
1.000000000000000e+00 0.000000000000000e+00 1.992920367320000e+01
7.071067811870000e-01 7.071067811870000e-01 2.071460183660000e+01
9.229551825146229e-01 3.823005540599710e-01 2.032190275490029e+01
7.071067811870000e-01 7.071067811870000e-01 2.071460183660000e+01
0.000000000000000e+00 1.000000000000000e+00 2.150000000000000e+01
3.823005540592515e-01 9.229551825133410e-01 2.110730091829987e+01
1.000000000000000e-01 3.000000000000000e-01 2.250000000000000e+01
1.150000000000000e+00 3.000000000000000e-01 2.305000000000000e+01
6.250000000000000e-01 3.000000000000000e-01 2.277500000000000e+01
1.150000000000000e+00 3.000000000000000e-01 2.305000000000000e+01
2.200000000000000e+00 3.000000000000000e-01 2.360000000000000e+01
1.675000000000000e+00 3.000000000000000e-01 2.332500000000000e+01
        </DataArray>
      </Points>

      <Cells>
        <DataArray type="Int32" Name="connectivity" format="ascii">

        </DataArray>
        <DataArray type="Int32" Name="offsets" format="ascii">

        </DataArray>
        <DataArray type="UInt8" Name="types" format="ascii">

        </DataArray>
      </Cells>

  <PointData>
        <DataArray type="Float64" Name="displacement" NumberOfComponents="3" format="ascii">
0.000000000000000e+00 0.000000000000000e+00 0.000000000000000e+00
6.661338147750939e-16 5.551115123125783e-17 -3.552713678800501e-15
0.000000000000000e+00 5.551115123125783e-17 0.000000000000000e+00
6.661338147750939e-16 5.551115123125783e-17 -3.552713678800501e-15
-4.440892098500626e-16 1.110223024625157e-15 0.000000000000000e+00
-4.440892098500626e-16 1.665334536937735e-16 0.000000000000000e+00
7.432405645082518e-04 8.366366550948687e-04 1.464606962073844e-04
3.205567768014284e-04 5.146409547353015e-04 8.576962489215134e-05
9.115526633308724e-04 7.616883977846212e-04 -5.625000802922386e-07
3.205567768014284e-04 5.146409547353015e-04 8.576962489215134e-05
0.000000000000000e+00 0.000000000000000e+00 0.000000000000000e+00
1.827383192465337e-04 4.140032526614990e-04 1.824327065236275e-05
0.000000000000000e+00 0.000000000000000e+00 0.000000000000000e+00
4.440892098500626e-16 -4.163336342344337e-15 3.552713678800501e-15
1.443289932012704e-15 -1.720845688168993e-15 0.000000000000000e+00
4.440892098500626e-16 -4.163336342344337e-15 3.552713678800501e-15
5.329070518200751e-15 -1.143529715363911e-14 -7.105427357601002e-15
8.881784197001252e-16 -6.106226635438361e-15 3.552713678800501e-15
        </DataArray>
        <DataArray type="Float64" Name="lambda" NumberOfComponents="3" format="ascii">
-4.507116086282452e-15 8.609483543811989e-16 6.695502740048208e-14
1.674481850643722e-14 -3.199854995962034e-15 -7.680579059044283e-14
1.735617001262492e-15 -3.042474861896897e-15 1.031765996007426e-14
1.674481850643722e-14 -3.199854995962034e-15 -7.680579059044283e-14
2.415418030997182e-14 1.378217193909712e-14 2.186022015948667e-13
8.591501034506714e-15 7.510575170923000e-16 -7.447799507138279e-14
7.542210595054302e-04 5.103311442568605e-04 -1.358335630488583e-04
4.804522329186098e-04 6.363043615397432e-04 9.684722900458212e-05
-2.503352743771500e-04 -1.943834180781947e-04 2.856568135791448e-05
4.804522329186098e-04 6.363043615397432e-04 9.684722900458212e-05
3.449658413222892e-04 7.953299552380941e-04 3.194332645991436e-04
-2.151345972777062e-04 -3.981613991573326e-04 -9.626326003361124e-05
4.472815355032231e-15 6.098670016293947e-15 1.655216087211927e-13
-4.881737945343312e-15 3.263281948608967e-16 5.744035478430287e-14
-3.045904935021929e-15 1.248546617508989e-15 -8.517557584061323e-14
-4.881737945343312e-15 3.263281948608967e-16 5.744035478430287e-14
1.231066300212334e-15 4.858315220480816e-15 -3.643956248628507e-13
-1.368083069771768e-14 -2.852147139502024e-16 1.252291581251121e-14
        </DataArray>
        <DataArray type="Int32" Name="uid_0_pair_beam_id" format="ascii">
281
281
281
282
282
282
283
283
283
284
284
284
285
285
285
286
286
286
        </DataArray>
      </PointData>

    </Piece>
  </UnstructuredGrid>
</VTKFile>
