<?xml version="1.0" ?> 
<!-- 
# vtk DataFile Version 3.0
-->
<VTKFile type="UnstructuredGrid" version="0.1" compressor="vtkZLibDataCompressor" byte_order="LittleEndian">
  <UnstructuredGrid>
    <FieldData>
      <DataArray type="Float64" Name="TIME" NumberOfTuples="1" format="ascii">
1.000000000000000e+00 
      </DataArray>
    </FieldData>

    <Piece NumberOfPoints="18" NumberOfCells="0" >
      <Points>
        <DataArray type="Float64" NumberOfComponents="3" format="ascii">
1.000000000000000e+00 0.000000000000000e+00 9.929203673210001e+00
7.071067811870000e-01 7.071067811870000e-01 1.071460183660000e+01
9.229551825141720e-01 3.823005540597842e-01 1.032190275490529e+01
7.071067811870000e-01 7.071067811870000e-01 1.071460183660000e+01
0.000000000000000e+00 1.000000000000000e+00 1.150000000000000e+01
3.823005540592515e-01 9.229551825133410e-01 1.110730091829987e+01
1.000000000000000e-01 3.000000000000000e-01 1.250000000000000e+01
1.150000000000000e+00 3.000000000000000e-01 1.305000000000000e+01
6.250000000000000e-01 3.000000000000000e-01 1.277500000000000e+01
1.150000000000000e+00 3.000000000000000e-01 1.305000000000000e+01
2.200000000000000e+00 3.000000000000000e-01 1.360000000000000e+01
1.675000000000000e+00 3.000000000000000e-01 1.332500000000000e+01
1.000000000000000e+00 0.000000000000000e+00 1.492920367320000e+01
7.071067811870000e-01 7.071067811870000e-01 1.571460183660000e+01
9.229551825146231e-01 3.823005540599710e-01 1.532190275490029e+01
7.071067811870000e-01 7.071067811870000e-01 1.571460183660000e+01
0.000000000000000e+00 1.000000000000000e+00 1.650000000000000e+01
3.823005540592515e-01 9.229551825133410e-01 1.610730091829987e+01
        </DataArray>
      </Points>

      <Cells>
        <DataArray type="Int32" Name="connectivity" format="ascii">

        </DataArray>
        <DataArray type="Int32" Name="offsets" format="ascii">

        </DataArray>
        <DataArray type="UInt8" Name="types" format="ascii">

        </DataArray>
      </Cells>

  <PointData>
        <DataArray type="Float64" Name="displacement" NumberOfComponents="3" format="ascii">
6.702316166642408e-04 7.211488195709198e-04 1.190697604389612e-04
2.794193314255011e-04 4.375377847497530e-04 7.611783338568046e-05
7.906499391645561e-04 6.448729220895899e-04 2.377441436607342e-06
2.794193314255011e-04 4.375377847497530e-04 7.611783338568046e-05
0.000000000000000e+00 0.000000000000000e+00 0.000000000000000e+00
1.630270793020472e-04 3.544151927953321e-04 1.905481701847123e-05
0.000000000000000e+00 0.000000000000000e+00 0.000000000000000e+00
1.332267629550188e-15 -2.442490654175344e-15 -3.552713678800501e-15
4.440892098500626e-16 -1.665334536937735e-16 -1.776356839400250e-15
1.332267629550188e-15 -2.442490654175344e-15 -3.552713678800501e-15
-1.776356839400250e-15 -7.216449660063518e-15 3.552713678800501e-15
4.440892098500626e-16 -5.717648576819556e-15 -1.776356839400250e-15
-1.389794469956807e-02 -7.109106508212026e-03 1.120466719575219e-02
-4.343528931216811e-03 8.532618562625993e-03 -2.636001915526265e-03
-8.632349823113672e-03 2.824674715992626e-03 1.656787166828266e-03
-4.343528931216811e-03 8.532618562625993e-03 -2.636001915526265e-03
0.000000000000000e+00 0.000000000000000e+00 0.000000000000000e+00
-7.870539428361856e-03 -5.041401463603545e-03 -5.544806108296996e-03
        </DataArray>
        <DataArray type="Float64" Name="lambda" NumberOfComponents="3" format="ascii">
6.466330673918908e-04 4.106545401591291e-04 -1.118520036749094e-04
4.201866518559809e-04 5.102336776525373e-04 7.808463035003064e-05
-2.165130320647132e-04 -1.543354799899279e-04 2.665493516401057e-05
4.201866518559809e-04 5.102336776525373e-04 7.808463035003064e-05
3.142015605129012e-04 5.867034644519520e-04 2.994116170717214e-04
-1.898685453442845e-04 -3.250632068817182e-04 -8.080991824289855e-05
4.253290675030609e-15 5.453816268789248e-15 3.863634368027805e-14
5.959609861702256e-15 -2.103003922436969e-15 -1.542114976603309e-13
1.029021937507411e-16 8.112122940683422e-16 -8.199246798059048e-14
5.959609861702256e-15 -2.103003922436969e-15 -1.542114976603309e-13
-2.251092663245608e-14 2.813865829057010e-15 -1.350655597947365e-13
1.940597123488449e-15 -9.702985617442244e-16 -7.762388493953795e-14
-4.058482042374604e-04 1.283914153996778e-02 -1.723649348530243e-03
5.142045094653076e-04 2.059389048922353e-02 1.853448842001315e-03
9.019509782506670e-04 -5.130612301308380e-03 -6.475684883626358e-04
5.142045094653076e-04 2.059389048922353e-02 1.853448842001315e-03
5.585393883371816e-02 1.629530967897245e-01 1.492348097492203e-02
2.803009465437623e-03 -8.509564674850841e-03 -1.825611254341144e-03
        </DataArray>
        <DataArray type="Int32" Name="uid_0_pair_beam_id" format="ascii">
275
275
275
276
276
276
277
277
277
278
278
278
279
279
279
280
280
280
        </DataArray>
      </PointData>

    </Piece>
  </UnstructuredGrid>
</VTKFile>
