<?xml version="1.0" ?> 
<!-- 
# vtk DataFile Version 3.0
-->
<VTKFile type="UnstructuredGrid" version="0.1" compressor="vtkZLibDataCompressor" byte_order="LittleEndian">
  <UnstructuredGrid>
    <FieldData>
      <DataArray type="Float64" Name="TIME" NumberOfTuples="1" format="ascii">
1.000000000000000e+00 
      </DataArray>
    </FieldData>

    <Piece NumberOfPoints="180" NumberOfCells="0" >
      <Points>
        <DataArray type="Float64" NumberOfComponents="3" format="ascii">
5.000000000000000e-01 8.660254037839999e-01 1.000000000000000e+00
0.000000000000000e+00 1.000000000000000e+00 1.000000000000000e+00
0.000000000000000e+00 1.000000000000000e+00 1.500000000000000e+00
5.000000000000000e-01 8.660254037839999e-01 1.500000000000000e+00
5.000000000000000e-01 8.660254037839999e-01 5.000000000000000e-01
0.000000000000000e+00 1.000000000000000e+00 5.000000000000000e-01
0.000000000000000e+00 1.000000000000000e+00 1.000000000000000e+00
5.000000000000000e-01 8.660254037839999e-01 1.000000000000000e+00
8.660254037839999e-01 5.000000000000000e-01 1.000000000000000e+00
5.000000000000000e-01 8.660254037839999e-01 1.000000000000000e+00
5.000000000000000e-01 8.660254037839999e-01 1.500000000000000e+00
8.660254037839999e-01 5.000000000000000e-01 1.500000000000000e+00
8.660254037839999e-01 5.000000000000000e-01 5.000000000000000e-01
5.000000000000000e-01 8.660254037839999e-01 5.000000000000000e-01
5.000000000000000e-01 8.660254037839999e-01 1.000000000000000e+00
8.660254037839999e-01 5.000000000000000e-01 1.000000000000000e+00
1.000000000000000e+00 0.000000000000000e+00 5.000000000000000e-01
8.660254037839999e-01 5.000000000000000e-01 5.000000000000000e-01
8.660254037839999e-01 5.000000000000000e-01 1.000000000000000e+00
1.000000000000000e+00 0.000000000000000e+00 1.000000000000000e+00
8.660254037839999e-01 5.000000000000000e-01 0.000000000000000e+00
5.000000000000000e-01 8.660254037839999e-01 0.000000000000000e+00
5.000000000000000e-01 8.660254037839999e-01 5.000000000000000e-01
8.660254037839999e-01 5.000000000000000e-01 5.000000000000000e-01
1.000000000000000e+00 0.000000000000000e+00 0.000000000000000e+00
8.660254037839999e-01 5.000000000000000e-01 0.000000000000000e+00
8.660254037839999e-01 5.000000000000000e-01 5.000000000000000e-01
1.000000000000000e+00 0.000000000000000e+00 5.000000000000000e-01
1.500000000000000e+00 3.000000000000000e-01 2.500000000000000e+00
1.500000000000000e+00 3.000000000000000e-01 3.000000000000000e+00
2.000000000000000e+00 3.000000000000000e-01 3.000000000000000e+00
2.000000000000000e+00 3.000000000000000e-01 2.500000000000000e+00
1.500000000000000e+00 3.000000000000000e-01 3.000000000000000e+00
1.500000000000000e+00 3.000000000000000e-01 3.500000000000000e+00
2.000000000000000e+00 3.000000000000000e-01 3.500000000000000e+00
2.000000000000000e+00 3.000000000000000e-01 3.000000000000000e+00
0.000000000000000e+00 3.000000000000000e-01 2.500000000000000e+00
0.000000000000000e+00 3.000000000000000e-01 3.000000000000000e+00
5.000000000000000e-01 3.000000000000000e-01 3.000000000000000e+00
5.000000000000000e-01 3.000000000000000e-01 2.500000000000000e+00
0.000000000000000e+00 3.000000000000000e-01 3.000000000000000e+00
0.000000000000000e+00 3.000000000000000e-01 3.500000000000000e+00
5.000000000000000e-01 3.000000000000000e-01 3.500000000000000e+00
5.000000000000000e-01 3.000000000000000e-01 3.000000000000000e+00
5.000000000000000e-01 3.000000000000000e-01 2.500000000000000e+00
5.000000000000000e-01 3.000000000000000e-01 3.000000000000000e+00
1.000000000000000e+00 3.000000000000000e-01 3.000000000000000e+00
1.000000000000000e+00 3.000000000000000e-01 2.500000000000000e+00
5.000000000000000e-01 3.000000000000000e-01 3.000000000000000e+00
5.000000000000000e-01 3.000000000000000e-01 3.500000000000000e+00
1.000000000000000e+00 3.000000000000000e-01 3.500000000000000e+00
1.000000000000000e+00 3.000000000000000e-01 3.000000000000000e+00
1.000000000000000e+00 3.000000000000000e-01 3.000000000000000e+00
1.000000000000000e+00 3.000000000000000e-01 3.500000000000000e+00
1.500000000000000e+00 3.000000000000000e-01 3.500000000000000e+00
1.500000000000000e+00 3.000000000000000e-01 3.000000000000000e+00
1.000000000000000e+00 3.000000000000000e-01 2.500000000000000e+00
1.000000000000000e+00 3.000000000000000e-01 3.000000000000000e+00
1.500000000000000e+00 3.000000000000000e-01 3.000000000000000e+00
1.500000000000000e+00 3.000000000000000e-01 2.500000000000000e+00
5.000000000000000e-01 8.660254037839999e-01 6.000000000000000e+00
0.000000000000000e+00 1.000000000000000e+00 6.000000000000000e+00
0.000000000000000e+00 1.000000000000000e+00 6.500000000000000e+00
5.000000000000000e-01 8.660254037839999e-01 6.500000000000000e+00
2.588190451030000e-01 9.659258262890000e-01 6.000000000000000e+00
0.000000000000000e+00 1.000000000000000e+00 6.250000000000000e+00
2.588190451030000e-01 9.659258262890000e-01 6.500000000000000e+00
5.000000000000000e-01 8.660254037839999e-01 6.250000000000000e+00
8.660254037839999e-01 5.000000000000000e-01 6.000000000000000e+00
5.000000000000000e-01 8.660254037839999e-01 6.000000000000000e+00
5.000000000000000e-01 8.660254037839999e-01 6.500000000000000e+00
8.660254037839999e-01 5.000000000000000e-01 6.500000000000000e+00
7.071067811870000e-01 7.071067811870000e-01 6.000000000000000e+00
5.000000000000000e-01 8.660254037839999e-01 6.250000000000000e+00
7.071067811870000e-01 7.071067811870000e-01 6.500000000000000e+00
8.660254037839999e-01 5.000000000000000e-01 6.250000000000000e+00
5.000000000000000e-01 8.660254037839999e-01 5.500000000000000e+00
0.000000000000000e+00 1.000000000000000e+00 5.500000000000000e+00
0.000000000000000e+00 1.000000000000000e+00 6.000000000000000e+00
5.000000000000000e-01 8.660254037839999e-01 6.000000000000000e+00
2.588190451030000e-01 9.659258262890000e-01 5.500000000000000e+00
0.000000000000000e+00 1.000000000000000e+00 5.750000000000000e+00
2.588190451030000e-01 9.659258262890000e-01 6.000000000000000e+00
5.000000000000000e-01 8.660254037839999e-01 5.750000000000000e+00
8.660254037839999e-01 5.000000000000000e-01 5.500000000000000e+00
5.000000000000000e-01 8.660254037839999e-01 5.500000000000000e+00
5.000000000000000e-01 8.660254037839999e-01 6.000000000000000e+00
8.660254037839999e-01 5.000000000000000e-01 6.000000000000000e+00
7.071067811870000e-01 7.071067811870000e-01 5.500000000000000e+00
5.000000000000000e-01 8.660254037839999e-01 5.750000000000000e+00
7.071067811870000e-01 7.071067811870000e-01 6.000000000000000e+00
8.660254037839999e-01 5.000000000000000e-01 5.750000000000000e+00
1.000000000000000e+00 0.000000000000000e+00 5.500000000000000e+00
8.660254037839999e-01 5.000000000000000e-01 5.500000000000000e+00
8.660254037839999e-01 5.000000000000000e-01 6.000000000000000e+00
1.000000000000000e+00 0.000000000000000e+00 6.000000000000000e+00
9.659258262890000e-01 2.588190451030000e-01 5.500000000000000e+00
8.660254037839999e-01 5.000000000000000e-01 5.750000000000000e+00
9.659258262890000e-01 2.588190451030000e-01 6.000000000000000e+00
1.000000000000000e+00 0.000000000000000e+00 5.750000000000000e+00
8.660254037839999e-01 5.000000000000000e-01 5.000000000000000e+00
5.000000000000000e-01 8.660254037839999e-01 5.000000000000000e+00
5.000000000000000e-01 8.660254037839999e-01 5.500000000000000e+00
8.660254037839999e-01 5.000000000000000e-01 5.500000000000000e+00
7.071067811870000e-01 7.071067811870000e-01 5.000000000000000e+00
5.000000000000000e-01 8.660254037839999e-01 5.250000000000000e+00
7.071067811870000e-01 7.071067811870000e-01 5.500000000000000e+00
8.660254037839999e-01 5.000000000000000e-01 5.250000000000000e+00
1.000000000000000e+00 0.000000000000000e+00 5.000000000000000e+00
8.660254037839999e-01 5.000000000000000e-01 5.000000000000000e+00
8.660254037839999e-01 5.000000000000000e-01 5.500000000000000e+00
1.000000000000000e+00 0.000000000000000e+00 5.500000000000000e+00
9.659258262890000e-01 2.588190451030000e-01 5.000000000000000e+00
8.660254037839999e-01 5.000000000000000e-01 5.250000000000000e+00
9.659258262890000e-01 2.588190451030000e-01 5.500000000000000e+00
1.000000000000000e+00 0.000000000000000e+00 5.250000000000000e+00
1.500000000000000e+00 3.000000000000000e-01 7.500000000000000e+00
1.500000000000000e+00 3.000000000000000e-01 8.000000000000000e+00
2.000000000000000e+00 3.000000000000000e-01 8.000000000000000e+00
2.000000000000000e+00 3.000000000000000e-01 7.500000000000000e+00
1.500000000000000e+00 3.000000000000000e-01 7.750000000000000e+00
1.750000000000000e+00 3.000000000000000e-01 8.000000000000000e+00
2.000000000000000e+00 3.000000000000000e-01 7.750000000000000e+00
1.750000000000000e+00 3.000000000000000e-01 7.500000000000000e+00
1.500000000000000e+00 3.000000000000000e-01 8.000000000000000e+00
1.500000000000000e+00 3.000000000000000e-01 8.500000000000000e+00
2.000000000000000e+00 3.000000000000000e-01 8.500000000000000e+00
2.000000000000000e+00 3.000000000000000e-01 8.000000000000000e+00
1.500000000000000e+00 3.000000000000000e-01 8.250000000000000e+00
1.750000000000000e+00 3.000000000000000e-01 8.500000000000000e+00
2.000000000000000e+00 3.000000000000000e-01 8.250000000000000e+00
1.750000000000000e+00 3.000000000000000e-01 8.000000000000000e+00
1.000000000000000e+00 3.000000000000000e-01 7.500000000000000e+00
1.000000000000000e+00 3.000000000000000e-01 8.000000000000000e+00
1.500000000000000e+00 3.000000000000000e-01 8.000000000000000e+00
1.500000000000000e+00 3.000000000000000e-01 7.500000000000000e+00
1.000000000000000e+00 3.000000000000000e-01 7.750000000000000e+00
1.250000000000000e+00 3.000000000000000e-01 8.000000000000000e+00
1.500000000000000e+00 3.000000000000000e-01 7.750000000000000e+00
1.250000000000000e+00 3.000000000000000e-01 7.500000000000000e+00
1.000000000000000e+00 3.000000000000000e-01 8.000000000000000e+00
1.000000000000000e+00 3.000000000000000e-01 8.500000000000000e+00
1.500000000000000e+00 3.000000000000000e-01 8.500000000000000e+00
1.500000000000000e+00 3.000000000000000e-01 8.000000000000000e+00
1.000000000000000e+00 3.000000000000000e-01 8.250000000000000e+00
1.250000000000000e+00 3.000000000000000e-01 8.500000000000000e+00
1.500000000000000e+00 3.000000000000000e-01 8.250000000000000e+00
1.250000000000000e+00 3.000000000000000e-01 8.000000000000000e+00
5.000000000000000e-01 3.000000000000000e-01 7.500000000000000e+00
5.000000000000000e-01 3.000000000000000e-01 8.000000000000000e+00
1.000000000000000e+00 3.000000000000000e-01 8.000000000000000e+00
1.000000000000000e+00 3.000000000000000e-01 7.500000000000000e+00
5.000000000000000e-01 3.000000000000000e-01 7.750000000000000e+00
7.500000000000000e-01 3.000000000000000e-01 8.000000000000000e+00
1.000000000000000e+00 3.000000000000000e-01 7.750000000000000e+00
7.500000000000000e-01 3.000000000000000e-01 7.500000000000000e+00
5.000000000000000e-01 3.000000000000000e-01 8.000000000000000e+00
5.000000000000000e-01 3.000000000000000e-01 8.500000000000000e+00
1.000000000000000e+00 3.000000000000000e-01 8.500000000000000e+00
1.000000000000000e+00 3.000000000000000e-01 8.000000000000000e+00
5.000000000000000e-01 3.000000000000000e-01 8.250000000000000e+00
7.500000000000000e-01 3.000000000000000e-01 8.500000000000000e+00
1.000000000000000e+00 3.000000000000000e-01 8.250000000000000e+00
7.500000000000000e-01 3.000000000000000e-01 8.000000000000000e+00
0.000000000000000e+00 3.000000000000000e-01 7.500000000000000e+00
0.000000000000000e+00 3.000000000000000e-01 8.000000000000000e+00
5.000000000000000e-01 3.000000000000000e-01 8.000000000000000e+00
5.000000000000000e-01 3.000000000000000e-01 7.500000000000000e+00
0.000000000000000e+00 3.000000000000000e-01 7.750000000000000e+00
2.500000000000000e-01 3.000000000000000e-01 8.000000000000000e+00
5.000000000000000e-01 3.000000000000000e-01 7.750000000000000e+00
2.500000000000000e-01 3.000000000000000e-01 7.500000000000000e+00
0.000000000000000e+00 3.000000000000000e-01 8.000000000000000e+00
0.000000000000000e+00 3.000000000000000e-01 8.500000000000000e+00
5.000000000000000e-01 3.000000000000000e-01 8.500000000000000e+00
5.000000000000000e-01 3.000000000000000e-01 8.000000000000000e+00
0.000000000000000e+00 3.000000000000000e-01 8.250000000000000e+00
2.500000000000000e-01 3.000000000000000e-01 8.500000000000000e+00
5.000000000000000e-01 3.000000000000000e-01 8.250000000000000e+00
2.500000000000000e-01 3.000000000000000e-01 8.000000000000000e+00
        </DataArray>
      </Points>

      <Cells>
        <DataArray type="Int32" Name="connectivity" format="ascii">

        </DataArray>
        <DataArray type="Int32" Name="offsets" format="ascii">

        </DataArray>
        <DataArray type="UInt8" Name="types" format="ascii">

        </DataArray>
      </Cells>

  <PointData>
        <DataArray type="Int32" Name="coupling_id" format="ascii">
1
1
1
1
1
1
1
1
1
1
1
1
1
1
1
1
1
1
1
1
1
1
1
1
1
1
1
1
2
2
2
2
2
2
2
2
2
2
2
2
2
2
2
2
2
2
2
2
2
2
2
2
2
2
2
2
2
2
2
2
3
3
3
3
3
3
3
3
3
3
3
3
3
3
3
3
3
3
3
3
3
3
3
3
3
3
3
3
3
3
3
3
3
3
3
3
3
3
3
3
3
3
3
3
3
3
3
3
3
3
3
3
3
3
3
3
4
4
4
4
4
4
4
4
4
4
4
4
4
4
4
4
4
4
4
4
4
4
4
4
4
4
4
4
4
4
4
4
4
4
4
4
4
4
4
4
4
4
4
4
4
4
4
4
4
4
4
4
4
4
4
4
4
4
4
4
4
4
4
4
        </DataArray>
        <DataArray type="Float64" Name="displacement" NumberOfComponents="3" format="ascii">
-8.249535490553461e-03 4.828336171928238e-03 -1.034182166808706e-02
0.000000000000000e+00 0.000000000000000e+00 0.000000000000000e+00
0.000000000000000e+00 0.000000000000000e+00 0.000000000000000e+00
8.769053173271812e-03 6.600039796583912e-02 -1.734149672741725e-02
7.995941375572579e-04 4.107554588873241e-03 -4.790525805401624e-03
0.000000000000000e+00 0.000000000000000e+00 0.000000000000000e+00
0.000000000000000e+00 0.000000000000000e+00 0.000000000000000e+00
-8.249535490553461e-03 4.828336171928238e-03 -1.034182166808706e-02
1.613534331768540e-02 4.390429064810364e-02 -4.261252298330409e-03
-8.249535490553461e-03 4.828336171928238e-03 -1.034182166808706e-02
8.769053173271812e-03 6.600039796583912e-02 -1.734149672741725e-02
2.798237140233562e-02 6.847075276351511e-02 -5.315161862615492e-03
5.117642603916894e-03 6.295571753747620e-03 -4.845219667645728e-03
7.995941375572579e-04 4.107554588873241e-03 -4.790525805401624e-03
-8.249535490553461e-03 4.828336171928238e-03 -1.034182166808706e-02
1.613534331768540e-02 4.390429064810364e-02 -4.261252298330409e-03
1.285540360433468e-02 7.011522251570534e-03 1.728089895531537e-02
5.117642603916894e-03 6.295571753747620e-03 -4.845219667645728e-03
1.613534331768540e-02 4.390429064810364e-02 -4.261252298330409e-03
3.804991339908592e-02 4.658538279355084e-02 1.684567720180485e-02
-1.185623257939661e-02 -2.496334025103897e-02 -4.695161016927533e-03
8.378991508189992e-04 -1.379572591131251e-02 -5.522690394429574e-03
7.995941375572579e-04 4.107554588873241e-03 -4.790525805401624e-03
5.117642603916894e-03 6.295571753747620e-03 -4.845219667645728e-03
4.940925038528166e-03 -7.204593903895206e-03 1.375174454156045e-02
-1.185623257939661e-02 -2.496334025103897e-02 -4.695161016927533e-03
5.117642603916894e-03 6.295571753747620e-03 -4.845219667645728e-03
1.285540360433468e-02 7.011522251570534e-03 1.728089895531537e-02
-2.220446049250313e-16 -4.440892098500626e-16 -4.440892098500626e-16
-2.220446049250313e-16 5.551115123125783e-17 -4.440892098500626e-16
0.000000000000000e+00 -5.551115123125783e-17 -4.440892098500626e-16
-2.220446049250313e-16 -1.665334536937735e-16 -4.440892098500626e-16
-2.220446049250313e-16 5.551115123125783e-17 -4.440892098500626e-16
2.220446049250313e-16 1.665334536937735e-16 0.000000000000000e+00
4.440892098500626e-16 1.665334536937735e-16 -1.332267629550188e-15
0.000000000000000e+00 -5.551115123125783e-17 -4.440892098500626e-16
0.000000000000000e+00 0.000000000000000e+00 0.000000000000000e+00
0.000000000000000e+00 0.000000000000000e+00 0.000000000000000e+00
2.220446049250313e-16 0.000000000000000e+00 4.440892098500626e-16
-1.110223024625157e-16 -1.665334536937735e-16 -4.440892098500626e-16
0.000000000000000e+00 0.000000000000000e+00 0.000000000000000e+00
0.000000000000000e+00 0.000000000000000e+00 0.000000000000000e+00
1.110223024625157e-16 -5.551115123125783e-17 0.000000000000000e+00
2.220446049250313e-16 0.000000000000000e+00 4.440892098500626e-16
-1.110223024625157e-16 -1.665334536937735e-16 -4.440892098500626e-16
2.220446049250313e-16 0.000000000000000e+00 4.440892098500626e-16
-2.220446049250313e-16 -2.220446049250313e-16 -8.881784197001252e-16
0.000000000000000e+00 -2.775557561562891e-16 0.000000000000000e+00
2.220446049250313e-16 0.000000000000000e+00 4.440892098500626e-16
1.110223024625157e-16 -5.551115123125783e-17 0.000000000000000e+00
2.220446049250313e-16 3.885780586188048e-16 -8.881784197001252e-16
-2.220446049250313e-16 -2.220446049250313e-16 -8.881784197001252e-16
-2.220446049250313e-16 -2.220446049250313e-16 -8.881784197001252e-16
2.220446049250313e-16 3.885780586188048e-16 -8.881784197001252e-16
2.220446049250313e-16 1.665334536937735e-16 0.000000000000000e+00
-2.220446049250313e-16 5.551115123125783e-17 -4.440892098500626e-16
0.000000000000000e+00 -2.775557561562891e-16 0.000000000000000e+00
-2.220446049250313e-16 -2.220446049250313e-16 -8.881784197001252e-16
-2.220446049250313e-16 5.551115123125783e-17 -4.440892098500626e-16
-2.220446049250313e-16 -4.440892098500626e-16 -4.440892098500626e-16
-2.030743950477421e-04 -3.747111772771650e-04 8.243641000049706e-06
0.000000000000000e+00 0.000000000000000e+00 0.000000000000000e+00
0.000000000000000e+00 0.000000000000000e+00 0.000000000000000e+00
-2.678255536547880e-05 -2.313828936024720e-04 -6.116782346499150e-05
-9.456950698971678e-05 -3.106957496432639e-04 1.520028171153598e-05
0.000000000000000e+00 0.000000000000000e+00 0.000000000000000e+00
4.433501607781221e-05 -1.669225631311111e-04 1.715188972273296e-05
-1.771131418768501e-04 -3.955148828048705e-04 -3.625242464888601e-05
1.169920734503949e-04 5.395504950533869e-05 3.160067701646341e-05
-2.030743950477421e-04 -3.747111772771650e-04 8.243641000049706e-06
-2.678255536547880e-05 -2.313828936024720e-04 -6.116782346499150e-05
-6.791809630291024e-05 -2.432755348532045e-04 1.591287654090223e-05
5.169381694292152e-05 4.574167892190673e-05 1.199383909771257e-04
-1.771131418768501e-04 -3.955148828048705e-04 -3.625242464888601e-05
-1.343889667095866e-04 -2.966431165707384e-04 4.183764363840936e-05
1.632054861455678e-05 -9.608595241034079e-05 2.736751159382322e-05
-1.742186743958207e-05 2.284631973199502e-04 2.113729351549409e-06
0.000000000000000e+00 0.000000000000000e+00 0.000000000000000e+00
0.000000000000000e+00 0.000000000000000e+00 0.000000000000000e+00
-2.030743950477421e-04 -3.747111772771650e-04 8.243641000049706e-06
-5.137452133574527e-05 7.579145940750376e-05 2.686905485926872e-05
0.000000000000000e+00 0.000000000000000e+00 0.000000000000000e+00
-9.456950698971678e-05 -3.106957496432639e-04 1.520028171153598e-05
2.200259108386948e-05 1.394070121257807e-04 6.096566399005354e-05
-4.498905373795381e-06 2.545785195408046e-04 -5.762092428085452e-06
-1.742186743958207e-05 2.284631973199502e-04 2.113729351549409e-06
-2.030743950477421e-04 -3.747111772771650e-04 8.243641000049706e-06
1.169920734503949e-04 5.395504950533869e-05 3.160067701646341e-05
1.633178184441419e-04 4.340438603368524e-04 9.924733105570738e-06
2.200259108386948e-05 1.394070121257807e-04 6.096566399005354e-05
5.169381694292152e-05 4.574167892190673e-05 1.199383909771257e-04
2.236657753406091e-04 2.948309425332418e-04 -2.784771398367525e-06
2.281471687872738e-04 3.161702052269577e-04 -1.639583356203289e-04
-4.498905373795381e-06 2.545785195408046e-04 -5.762092428085452e-06
1.169920734503949e-04 5.395504950533869e-05 3.160067701646341e-05
1.854805681968941e-04 9.668493072293866e-05 -2.727498407697482e-04
8.621574960865352e-05 2.537098663831228e-04 -1.030224436773253e-04
2.236657753406091e-04 2.948309425332418e-04 -2.784771398367525e-06
1.551530539350976e-04 6.913368560690358e-05 -1.197131933414752e-04
1.403222482672106e-04 1.693207050391351e-04 -2.415358159062464e-04
2.042073705128544e-04 5.181212338855046e-04 7.487281159956893e-05
-2.588237478579059e-05 2.310280633183170e-04 -4.384949438218655e-06
-1.742186743958207e-05 2.284631973199502e-04 2.113729351549409e-06
-4.498905373795381e-06 2.545785195408046e-04 -5.762092428085452e-06
4.501924848065997e-05 3.168966594651046e-04 -1.029170940025637e-05
-1.367206497909779e-05 2.349050954200127e-04 -1.629896724963942e-05
1.633178184441419e-04 4.340438603368524e-04 9.924733105570738e-06
-4.144457764976295e-06 2.789838549396295e-04 3.331981697307640e-05
1.296630300107848e-03 1.212409627363569e-03 -1.920495608880302e-04
2.042073705128544e-04 5.181212338855046e-04 7.487281159956893e-05
-4.498905373795381e-06 2.545785195408046e-04 -5.762092428085452e-06
2.281471687872738e-04 3.161702052269577e-04 -1.639583356203289e-04
5.365283886892280e-04 8.349435506400660e-04 7.928073788665557e-05
-4.144457764976295e-06 2.789838549396295e-04 3.331981697307640e-05
8.621574960865352e-05 2.537098663831228e-04 -1.030224436773253e-04
5.261222007739708e-04 5.584544087531011e-04 -1.535178212215271e-04
0.000000000000000e+00 1.720845688168993e-15 0.000000000000000e+00
2.220446049250313e-16 8.881784197001252e-16 1.776356839400250e-15
4.440892098500626e-16 5.551115123125783e-17 1.776356839400250e-15
0.000000000000000e+00 2.109423746787797e-15 8.881784197001252e-16
0.000000000000000e+00 1.332267629550188e-15 8.881784197001252e-16
0.000000000000000e+00 5.551115123125783e-16 1.776356839400250e-15
0.000000000000000e+00 1.221245327087672e-15 8.881784197001252e-16
0.000000000000000e+00 2.053912595556540e-15 8.881784197001252e-16
2.220446049250313e-16 8.881784197001252e-16 1.776356839400250e-15
6.661338147750939e-16 -2.053912595556540e-15 3.552713678800501e-15
-2.220446049250313e-16 -5.551115123125783e-17 -3.552713678800501e-15
4.440892098500626e-16 5.551115123125783e-17 1.776356839400250e-15
1.110223024625157e-15 1.665334536937735e-16 3.552713678800501e-15
4.440892098500626e-16 -1.887379141862766e-15 1.776356839400250e-15
-2.220446049250313e-16 -7.771561172376096e-16 0.000000000000000e+00
0.000000000000000e+00 5.551115123125783e-16 1.776356839400250e-15
-3.330669073875470e-16 1.276756478318930e-15 0.000000000000000e+00
-7.771561172376096e-16 4.996003610813204e-16 -1.776356839400250e-15
2.220446049250313e-16 8.881784197001252e-16 1.776356839400250e-15
0.000000000000000e+00 1.720845688168993e-15 0.000000000000000e+00
-3.330669073875470e-16 6.661338147750939e-16 0.000000000000000e+00
-2.220446049250313e-16 7.216449660063518e-16 -8.881784197001252e-16
0.000000000000000e+00 1.332267629550188e-15 8.881784197001252e-16
0.000000000000000e+00 1.387778780781446e-15 0.000000000000000e+00
-7.771561172376096e-16 4.996003610813204e-16 -1.776356839400250e-15
2.220446049250313e-16 7.771561172376096e-16 0.000000000000000e+00
6.661338147750939e-16 -2.053912595556540e-15 3.552713678800501e-15
2.220446049250313e-16 8.881784197001252e-16 1.776356839400250e-15
0.000000000000000e+00 6.661338147750939e-16 0.000000000000000e+00
2.220446049250313e-16 -1.665334536937735e-16 0.000000000000000e+00
1.110223024625157e-15 1.665334536937735e-16 3.552713678800501e-15
-2.220446049250313e-16 7.216449660063518e-16 -8.881784197001252e-16
-5.551115123125783e-17 9.992007221626409e-16 8.881784197001252e-16
-2.220446049250313e-16 5.551115123125783e-17 0.000000000000000e+00
-7.771561172376096e-16 4.996003610813204e-16 -1.776356839400250e-15
-3.330669073875470e-16 1.276756478318930e-15 0.000000000000000e+00
-3.885780586188048e-16 6.106226635438361e-16 1.776356839400250e-15
-4.440892098500626e-16 2.775557561562891e-16 0.000000000000000e+00
-3.330669073875470e-16 6.661338147750939e-16 0.000000000000000e+00
-3.330669073875470e-16 1.332267629550188e-15 8.881784197001252e-16
-2.220446049250313e-16 5.551115123125783e-17 0.000000000000000e+00
-5.551115123125783e-17 2.220446049250313e-16 0.000000000000000e+00
2.220446049250313e-16 7.771561172376096e-16 0.000000000000000e+00
-7.771561172376096e-16 4.996003610813204e-16 -1.776356839400250e-15
-1.665334536937735e-16 5.551115123125783e-17 0.000000000000000e+00
0.000000000000000e+00 5.551115123125783e-16 0.000000000000000e+00
0.000000000000000e+00 6.661338147750939e-16 0.000000000000000e+00
-4.440892098500626e-16 2.775557561562891e-16 0.000000000000000e+00
0.000000000000000e+00 0.000000000000000e+00 0.000000000000000e+00
0.000000000000000e+00 0.000000000000000e+00 0.000000000000000e+00
-2.220446049250313e-16 5.551115123125783e-17 0.000000000000000e+00
-5.551115123125783e-17 9.992007221626409e-16 8.881784197001252e-16
0.000000000000000e+00 0.000000000000000e+00 0.000000000000000e+00
-1.387778780781446e-16 1.665334536937735e-16 0.000000000000000e+00
-3.885780586188048e-16 6.106226635438361e-16 1.776356839400250e-15
1.110223024625157e-16 -2.220446049250313e-16 -8.881784197001252e-16
0.000000000000000e+00 0.000000000000000e+00 0.000000000000000e+00
0.000000000000000e+00 0.000000000000000e+00 0.000000000000000e+00
-5.551115123125783e-17 2.220446049250313e-16 0.000000000000000e+00
-2.220446049250313e-16 5.551115123125783e-17 0.000000000000000e+00
0.000000000000000e+00 0.000000000000000e+00 0.000000000000000e+00
-2.775557561562891e-17 0.000000000000000e+00 0.000000000000000e+00
-1.665334536937735e-16 5.551115123125783e-17 0.000000000000000e+00
-1.387778780781446e-16 1.665334536937735e-16 0.000000000000000e+00
        </DataArray>
        <DataArray type="Float64" Name="normal_averaged" NumberOfComponents="3" format="ascii">
0.000000000000000e+00 0.000000000000000e+00 0.000000000000000e+00
0.000000000000000e+00 0.000000000000000e+00 0.000000000000000e+00
0.000000000000000e+00 0.000000000000000e+00 0.000000000000000e+00
0.000000000000000e+00 0.000000000000000e+00 0.000000000000000e+00
0.000000000000000e+00 0.000000000000000e+00 0.000000000000000e+00
0.000000000000000e+00 0.000000000000000e+00 0.000000000000000e+00
0.000000000000000e+00 0.000000000000000e+00 0.000000000000000e+00
0.000000000000000e+00 0.000000000000000e+00 0.000000000000000e+00
0.000000000000000e+00 0.000000000000000e+00 0.000000000000000e+00
0.000000000000000e+00 0.000000000000000e+00 0.000000000000000e+00
0.000000000000000e+00 0.000000000000000e+00 0.000000000000000e+00
0.000000000000000e+00 0.000000000000000e+00 0.000000000000000e+00
0.000000000000000e+00 0.000000000000000e+00 0.000000000000000e+00
0.000000000000000e+00 0.000000000000000e+00 0.000000000000000e+00
0.000000000000000e+00 0.000000000000000e+00 0.000000000000000e+00
0.000000000000000e+00 0.000000000000000e+00 0.000000000000000e+00
0.000000000000000e+00 0.000000000000000e+00 0.000000000000000e+00
0.000000000000000e+00 0.000000000000000e+00 0.000000000000000e+00
0.000000000000000e+00 0.000000000000000e+00 0.000000000000000e+00
0.000000000000000e+00 0.000000000000000e+00 0.000000000000000e+00
0.000000000000000e+00 0.000000000000000e+00 0.000000000000000e+00
0.000000000000000e+00 0.000000000000000e+00 0.000000000000000e+00
0.000000000000000e+00 0.000000000000000e+00 0.000000000000000e+00
0.000000000000000e+00 0.000000000000000e+00 0.000000000000000e+00
0.000000000000000e+00 0.000000000000000e+00 0.000000000000000e+00
0.000000000000000e+00 0.000000000000000e+00 0.000000000000000e+00
0.000000000000000e+00 0.000000000000000e+00 0.000000000000000e+00
0.000000000000000e+00 0.000000000000000e+00 0.000000000000000e+00
0.000000000000000e+00 0.000000000000000e+00 0.000000000000000e+00
0.000000000000000e+00 0.000000000000000e+00 0.000000000000000e+00
0.000000000000000e+00 0.000000000000000e+00 0.000000000000000e+00
0.000000000000000e+00 0.000000000000000e+00 0.000000000000000e+00
0.000000000000000e+00 0.000000000000000e+00 0.000000000000000e+00
0.000000000000000e+00 0.000000000000000e+00 0.000000000000000e+00
0.000000000000000e+00 0.000000000000000e+00 0.000000000000000e+00
0.000000000000000e+00 0.000000000000000e+00 0.000000000000000e+00
0.000000000000000e+00 0.000000000000000e+00 0.000000000000000e+00
0.000000000000000e+00 0.000000000000000e+00 0.000000000000000e+00
0.000000000000000e+00 0.000000000000000e+00 0.000000000000000e+00
0.000000000000000e+00 0.000000000000000e+00 0.000000000000000e+00
0.000000000000000e+00 0.000000000000000e+00 0.000000000000000e+00
0.000000000000000e+00 0.000000000000000e+00 0.000000000000000e+00
0.000000000000000e+00 0.000000000000000e+00 0.000000000000000e+00
0.000000000000000e+00 0.000000000000000e+00 0.000000000000000e+00
0.000000000000000e+00 0.000000000000000e+00 0.000000000000000e+00
0.000000000000000e+00 0.000000000000000e+00 0.000000000000000e+00
0.000000000000000e+00 0.000000000000000e+00 0.000000000000000e+00
0.000000000000000e+00 0.000000000000000e+00 0.000000000000000e+00
0.000000000000000e+00 0.000000000000000e+00 0.000000000000000e+00
0.000000000000000e+00 0.000000000000000e+00 0.000000000000000e+00
0.000000000000000e+00 0.000000000000000e+00 0.000000000000000e+00
0.000000000000000e+00 0.000000000000000e+00 0.000000000000000e+00
0.000000000000000e+00 0.000000000000000e+00 0.000000000000000e+00
0.000000000000000e+00 0.000000000000000e+00 0.000000000000000e+00
0.000000000000000e+00 0.000000000000000e+00 0.000000000000000e+00
0.000000000000000e+00 0.000000000000000e+00 0.000000000000000e+00
0.000000000000000e+00 0.000000000000000e+00 0.000000000000000e+00
0.000000000000000e+00 0.000000000000000e+00 0.000000000000000e+00
0.000000000000000e+00 0.000000000000000e+00 0.000000000000000e+00
0.000000000000000e+00 0.000000000000000e+00 0.000000000000000e+00
0.000000000000000e+00 0.000000000000000e+00 0.000000000000000e+00
0.000000000000000e+00 0.000000000000000e+00 0.000000000000000e+00
0.000000000000000e+00 0.000000000000000e+00 0.000000000000000e+00
0.000000000000000e+00 0.000000000000000e+00 0.000000000000000e+00
0.000000000000000e+00 0.000000000000000e+00 0.000000000000000e+00
0.000000000000000e+00 0.000000000000000e+00 0.000000000000000e+00
0.000000000000000e+00 0.000000000000000e+00 0.000000000000000e+00
0.000000000000000e+00 0.000000000000000e+00 0.000000000000000e+00
0.000000000000000e+00 0.000000000000000e+00 0.000000000000000e+00