<?xml version="1.0" ?> 
<!-- 
# vtk DataFile Version 3.0
-->
<VTKFile type="UnstructuredGrid" version="0.1" compressor="vtkZLibDataCompressor" byte_order="LittleEndian">
  <UnstructuredGrid>
    <FieldData>
      <DataArray type="Float64" Name="TIME" NumberOfTuples="1" format="ascii">
3.000000000000000e+00 
      </DataArray>
    </FieldData>

    <Piece NumberOfPoints="180" NumberOfCells="0" >
      <Points>
        <DataArray type="Float64" NumberOfComponents="3" format="ascii">
5.000000000000000e-01 8.660254037839999e-01 1.000000000000000e+00
0.000000000000000e+00 1.000000000000000e+00 1.000000000000000e+00
0.000000000000000e+00 1.000000000000000e+00 1.500000000000000e+00
5.000000000000000e-01 8.660254037839999e-01 1.500000000000000e+00
5.000000000000000e-01 8.660254037839999e-01 5.000000000000000e-01
0.000000000000000e+00 1.000000000000000e+00 5.000000000000000e-01
0.000000000000000e+00 1.000000000000000e+00 1.000000000000000e+00
5.000000000000000e-01 8.660254037839999e-01 1.000000000000000e+00
8.660254037839999e-01 5.000000000000000e-01 1.000000000000000e+00
5.000000000000000e-01 8.660254037839999e-01 1.000000000000000e+00
5.000000000000000e-01 8.660254037839999e-01 1.500000000000000e+00
8.660254037839999e-01 5.000000000000000e-01 1.500000000000000e+00
8.660254037839999e-01 5.000000000000000e-01 5.000000000000000e-01
5.000000000000000e-01 8.660254037839999e-01 5.000000000000000e-01
5.000000000000000e-01 8.660254037839999e-01 1.000000000000000e+00
8.660254037839999e-01 5.000000000000000e-01 1.000000000000000e+00
1.000000000000000e+00 0.000000000000000e+00 5.000000000000000e-01
8.660254037839999e-01 5.000000000000000e-01 5.000000000000000e-01
8.660254037839999e-01 5.000000000000000e-01 1.000000000000000e+00
1.000000000000000e+00 0.000000000000000e+00 1.000000000000000e+00
8.660254037839999e-01 5.000000000000000e-01 0.000000000000000e+00
5.000000000000000e-01 8.660254037839999e-01 0.000000000000000e+00
5.000000000000000e-01 8.660254037839999e-01 5.000000000000000e-01
8.660254037839999e-01 5.000000000000000e-01 5.000000000000000e-01
1.000000000000000e+00 0.000000000000000e+00 0.000000000000000e+00
8.660254037839999e-01 5.000000000000000e-01 0.000000000000000e+00
8.660254037839999e-01 5.000000000000000e-01 5.000000000000000e-01
1.000000000000000e+00 0.000000000000000e+00 5.000000000000000e-01
1.500000000000000e+00 3.000000000000000e-01 2.500000000000000e+00
1.500000000000000e+00 3.000000000000000e-01 3.000000000000000e+00
2.000000000000000e+00 3.000000000000000e-01 3.000000000000000e+00
2.000000000000000e+00 3.000000000000000e-01 2.500000000000000e+00
1.500000000000000e+00 3.000000000000000e-01 3.000000000000000e+00
1.500000000000000e+00 3.000000000000000e-01 3.500000000000000e+00
2.000000000000000e+00 3.000000000000000e-01 3.500000000000000e+00
2.000000000000000e+00 3.000000000000000e-01 3.000000000000000e+00
0.000000000000000e+00 3.000000000000000e-01 2.500000000000000e+00
0.000000000000000e+00 3.000000000000000e-01 3.000000000000000e+00
5.000000000000000e-01 3.000000000000000e-01 3.000000000000000e+00
5.000000000000000e-01 3.000000000000000e-01 2.500000000000000e+00
0.000000000000000e+00 3.000000000000000e-01 3.000000000000000e+00
0.000000000000000e+00 3.000000000000000e-01 3.500000000000000e+00
5.000000000000000e-01 3.000000000000000e-01 3.500000000000000e+00
5.000000000000000e-01 3.000000000000000e-01 3.000000000000000e+00
5.000000000000000e-01 3.000000000000000e-01 2.500000000000000e+00
5.000000000000000e-01 3.000000000000000e-01 3.000000000000000e+00
1.000000000000000e+00 3.000000000000000e-01 3.000000000000000e+00
1.000000000000000e+00 3.000000000000000e-01 2.500000000000000e+00
5.000000000000000e-01 3.000000000000000e-01 3.000000000000000e+00
5.000000000000000e-01 3.000000000000000e-01 3.500000000000000e+00
1.000000000000000e+00 3.000000000000000e-01 3.500000000000000e+00
1.000000000000000e+00 3.000000000000000e-01 3.000000000000000e+00
1.000000000000000e+00 3.000000000000000e-01 3.000000000000000e+00
1.000000000000000e+00 3.000000000000000e-01 3.500000000000000e+00
1.500000000000000e+00 3.000000000000000e-01 3.500000000000000e+00
1.500000000000000e+00 3.000000000000000e-01 3.000000000000000e+00
1.000000000000000e+00 3.000000000000000e-01 2.500000000000000e+00
1.000000000000000e+00 3.000000000000000e-01 3.000000000000000e+00
1.500000000000000e+00 3.000000000000000e-01 3.000000000000000e+00
1.500000000000000e+00 3.000000000000000e-01 2.500000000000000e+00
5.000000000000000e-01 8.660254037839999e-01 6.000000000000000e+00
0.000000000000000e+00 1.000000000000000e+00 6.000000000000000e+00
0.000000000000000e+00 1.000000000000000e+00 6.500000000000000e+00
5.000000000000000e-01 8.660254037839999e-01 6.500000000000000e+00
2.588190451030000e-01 9.659258262890000e-01 6.000000000000000e+00
0.000000000000000e+00 1.000000000000000e+00 6.250000000000000e+00
2.588190451030000e-01 9.659258262890000e-01 6.500000000000000e+00
5.000000000000000e-01 8.660254037839999e-01 6.250000000000000e+00
8.660254037839999e-01 5.000000000000000e-01 6.000000000000000e+00
5.000000000000000e-01 8.660254037839999e-01 6.000000000000000e+00
5.000000000000000e-01 8.660254037839999e-01 6.500000000000000e+00
8.660254037839999e-01 5.000000000000000e-01 6.500000000000000e+00
7.071067811870000e-01 7.071067811870000e-01 6.000000000000000e+00
5.000000000000000e-01 8.660254037839999e-01 6.250000000000000e+00
7.071067811870000e-01 7.071067811870000e-01 6.500000000000000e+00
8.660254037839999e-01 5.000000000000000e-01 6.250000000000000e+00
5.000000000000000e-01 8.660254037839999e-01 5.500000000000000e+00
0.000000000000000e+00 1.000000000000000e+00 5.500000000000000e+00
0.000000000000000e+00 1.000000000000000e+00 6.000000000000000e+00
5.000000000000000e-01 8.660254037839999e-01 6.000000000000000e+00
2.588190451030000e-01 9.659258262890000e-01 5.500000000000000e+00
0.000000000000000e+00 1.000000000000000e+00 5.750000000000000e+00
2.588190451030000e-01 9.659258262890000e-01 6.000000000000000e+00
5.000000000000000e-01 8.660254037839999e-01 5.750000000000000e+00
8.660254037839999e-01 5.000000000000000e-01 5.500000000000000e+00
5.000000000000000e-01 8.660254037839999e-01 5.500000000000000e+00
5.000000000000000e-01 8.660254037839999e-01 6.000000000000000e+00
8.660254037839999e-01 5.000000000000000e-01 6.000000000000000e+00
7.071067811870000e-01 7.071067811870000e-01 5.500000000000000e+00
5.000000000000000e-01 8.660254037839999e-01 5.750000000000000e+00
7.071067811870000e-01 7.071067811870000e-01 6.000000000000000e+00
8.660254037839999e-01 5.000000000000000e-01 5.750000000000000e+00
1.000000000000000e+00 0.000000000000000e+00 5.500000000000000e+00
8.660254037839999e-01 5.000000000000000e-01 5.500000000000000e+00
8.660254037839999e-01 5.000000000000000e-01 6.000000000000000e+00
1.000000000000000e+00 0.000000000000000e+00 6.000000000000000e+00
9.659258262890000e-01 2.588190451030000e-01 5.500000000000000e+00
8.660254037839999e-01 5.000000000000000e-01 5.750000000000000e+00
9.659258262890000e-01 2.588190451030000e-01 6.000000000000000e+00
1.000000000000000e+00 0.000000000000000e+00 5.750000000000000e+00
8.660254037839999e-01 5.000000000000000e-01 5.000000000000000e+00
5.000000000000000e-01 8.660254037839999e-01 5.000000000000000e+00
5.000000000000000e-01 8.660254037839999e-01 5.500000000000000e+00
8.660254037839999e-01 5.000000000000000e-01 5.500000000000000e+00
7.071067811870000e-01 7.071067811870000e-01 5.000000000000000e+00
5.000000000000000e-01 8.660254037839999e-01 5.250000000000000e+00
7.071067811870000e-01 7.071067811870000e-01 5.500000000000000e+00
8.660254037839999e-01 5.000000000000000e-01 5.250000000000000e+00
1.000000000000000e+00 0.000000000000000e+00 5.000000000000000e+00
8.660254037839999e-01 5.000000000000000e-01 5.000000000000000e+00
8.660254037839999e-01 5.000000000000000e-01 5.500000000000000e+00
1.000000000000000e+00 0.000000000000000e+00 5.500000000000000e+00
9.659258262890000e-01 2.588190451030000e-01 5.000000000000000e+00
8.660254037839999e-01 5.000000000000000e-01 5.250000000000000e+00
9.659258262890000e-01 2.588190451030000e-01 5.500000000000000e+00
1.000000000000000e+00 0.000000000000000e+00 5.250000000000000e+00
1.500000000000000e+00 3.000000000000000e-01 7.500000000000000e+00
1.500000000000000e+00 3.000000000000000e-01 8.000000000000000e+00
2.000000000000000e+00 3.000000000000000e-01 8.000000000000000e+00
2.000000000000000e+00 3.000000000000000e-01 7.500000000000000e+00
1.500000000000000e+00 3.000000000000000e-01 7.750000000000000e+00
1.750000000000000e+00 3.000000000000000e-01 8.000000000000000e+00
2.000000000000000e+00 3.000000000000000e-01 7.750000000000000e+00
1.750000000000000e+00 3.000000000000000e-01 7.500000000000000e+00
1.500000000000000e+00 3.000000000000000e-01 8.000000000000000e+00
1.500000000000000e+00 3.000000000000000e-01 8.500000000000000e+00
2.000000000000000e+00 3.000000000000000e-01 8.500000000000000e+00
2.000000000000000e+00 3.000000000000000e-01 8.000000000000000e+00
1.500000000000000e+00 3.000000000000000e-01 8.250000000000000e+00
1.750000000000000e+00 3.000000000000000e-01 8.500000000000000e+00
2.000000000000000e+00 3.000000000000000e-01 8.250000000000000e+00
1.750000000000000e+00 3.000000000000000e-01 8.000000000000000e+00
1.000000000000000e+00 3.000000000000000e-01 7.500000000000000e+00
1.000000000000000e+00 3.000000000000000e-01 8.000000000000000e+00
1.500000000000000e+00 3.000000000000000e-01 8.000000000000000e+00
1.500000000000000e+00 3.000000000000000e-01 7.500000000000000e+00
1.000000000000000e+00 3.000000000000000e-01 7.750000000000000e+00
1.250000000000000e+00 3.000000000000000e-01 8.000000000000000e+00
1.500000000000000e+00 3.000000000000000e-01 7.750000000000000e+00
1.250000000000000e+00 3.000000000000000e-01 7.500000000000000e+00
1.000000000000000e+00 3.000000000000000e-01 8.000000000000000e+00
1.000000000000000e+00 3.000000000000000e-01 8.500000000000000e+00
1.500000000000000e+00 3.000000000000000e-01 8.500000000000000e+00
1.500000000000000e+00 3.000000000000000e-01 8.000000000000000e+00
1.000000000000000e+00 3.000000000000000e-01 8.250000000000000e+00
1.250000000000000e+00 3.000000000000000e-01 8.500000000000000e+00
1.500000000000000e+00 3.000000000000000e-01 8.250000000000000e+00
1.250000000000000e+00 3.000000000000000e-01 8.000000000000000e+00
5.000000000000000e-01 3.000000000000000e-01 7.500000000000000e+00
5.000000000000000e-01 3.000000000000000e-01 8.000000000000000e+00
1.000000000000000e+00 3.000000000000000e-01 8.000000000000000e+00
1.000000000000000e+00 3.000000000000000e-01 7.500000000000000e+00
5.000000000000000e-01 3.000000000000000e-01 7.750000000000000e+00
7.500000000000000e-01 3.000000000000000e-01 8.000000000000000e+00
1.000000000000000e+00 3.000000000000000e-01 7.750000000000000e+00
7.500000000000000e-01 3.000000000000000e-01 7.500000000000000e+00
5.000000000000000e-01 3.000000000000000e-01 8.000000000000000e+00
5.000000000000000e-01 3.000000000000000e-01 8.500000000000000e+00
1.000000000000000e+00 3.000000000000000e-01 8.500000000000000e+00
1.000000000000000e+00 3.000000000000000e-01 8.000000000000000e+00
5.000000000000000e-01 3.000000000000000e-01 8.250000000000000e+00
7.500000000000000e-01 3.000000000000000e-01 8.500000000000000e+00
1.000000000000000e+00 3.000000000000000e-01 8.250000000000000e+00
7.500000000000000e-01 3.000000000000000e-01 8.000000000000000e+00
0.000000000000000e+00 3.000000000000000e-01 7.500000000000000e+00
0.000000000000000e+00 3.000000000000000e-01 8.000000000000000e+00
5.000000000000000e-01 3.000000000000000e-01 8.000000000000000e+00
5.000000000000000e-01 3.000000000000000e-01 7.500000000000000e+00
0.000000000000000e+00 3.000000000000000e-01 7.750000000000000e+00
2.500000000000000e-01 3.000000000000000e-01 8.000000000000000e+00
5.000000000000000e-01 3.000000000000000e-01 7.750000000000000e+00
2.500000000000000e-01 3.000000000000000e-01 7.500000000000000e+00
0.000000000000000e+00 3.000000000000000e-01 8.000000000000000e+00
0.000000000000000e+00 3.000000000000000e-01 8.500000000000000e+00
5.000000000000000e-01 3.000000000000000e-01 8.500000000000000e+00
5.000000000000000e-01 3.000000000000000e-01 8.000000000000000e+00
0.000000000000000e+00 3.000000000000000e-01 8.250000000000000e+00
2.500000000000000e-01 3.000000000000000e-01 8.500000000000000e+00
5.000000000000000e-01 3.000000000000000e-01 8.250000000000000e+00
2.500000000000000e-01 3.000000000000000e-01 8.000000000000000e+00
        </DataArray>
      </Points>

      <Cells>
        <DataArray type="Int32" Name="connectivity" format="ascii">

        </DataArray>
        <DataArray type="Int32" Name="offsets" format="ascii">

        </DataArray>
        <DataArray type="UInt8" Name="types" format="ascii">

        </DataArray>
      </Cells>

  <PointData>
        <DataArray type="Int32" Name="coupling_id" format="ascii">
1
1
1
1
1
1
1
1
1
1
1
1
1
1
1
1
1
1
1
1
1
1
1
1
1
1
1
1
2
2
2
2
2
2
2
2
2
2
2
2
2
2
2
2
2
2
2
2
2
2
2
2
2
2
2
2
2
2
2
2
3
3
3
3
3
3
3
3
3
3
3
3
3
3
3
3
3
3
3
3
3
3
3
3
3
3
3
3
3
3
3
3
3
3
3
3
3
3
3
3
3
3
3
3
3
3
3
3
3
3
3
3
3
3
3
3
4
4
4
4
4
4
4
4
4
4
4
4
4
4
4
4
4
4
4
4
4
4
4
4
4
4
4
4
4
4
4
4
4
4
4
4
4
4
4
4
4
4
4
4
4
4
4
4
4
4
4
4
4
4
4
4
4
4
4
4
4
4
4
4
        </DataArray>
        <DataArray type="Float64" Name="displacement" NumberOfComponents="3" format="ascii">
-1.787595007732118e-02 3.718189263244509e-02 -9.880670016582327e-03
0.000000000000000e+00 0.000000000000000e+00 0.000000000000000e+00
0.000000000000000e+00 0.000000000000000e+00 0.000000000000000e+00
-8.823394735386070e-04 7.149604546698507e-02 -1.073193161999142e-02
-9.783146329417514e-03 4.936484972242272e-02 -7.883951317226412e-03
0.000000000000000e+00 0.000000000000000e+00 0.000000000000000e+00
0.000000000000000e+00 0.000000000000000e+00 0.000000000000000e+00
-1.787595007732118e-02 3.718189263244509e-02 -9.880670016582327e-03
4.378309358412713e-02 1.382995859510275e-01 -1.241252791513658e-03
-1.787595007732118e-02 3.718189263244509e-02 -9.880670016582327e-03
-8.823394735386070e-04 7.149604546698507e-02 -1.073193161999142e-02
3.191047598436159e-02 1.077175692255201e-01 -8.391491755392888e-04
5.770987728469046e-02 1.542953226035338e-01 -5.460710161910520e-03
-9.783146329417514e-03 4.936484972242272e-02 -7.883951317226412e-03
-1.787595007732118e-02 3.718189263244509e-02 -9.880670016582327e-03
4.378309358412713e-02 1.382995859510275e-01 -1.241252791513658e-03
2.040372764375336e-01 2.233789133117218e-01 1.375124538256611e-02
5.770987728469046e-02 1.542953226035338e-01 -5.460710161910520e-03
4.378309358412713e-02 1.382995859510275e-01 -1.241252791513658e-03
1.468607405545037e-01 1.749738534725058e-01 9.235517072396782e-04
8.209969311477472e-02 1.703442296782615e-01 -6.986038520476748e-04
-1.227613910547753e-02 3.806658461817780e-02 -1.148625098063109e-02
-9.783146329417514e-03 4.936484972242272e-02 -7.883951317226412e-03
5.770987728469046e-02 1.542953226035338e-01 -5.460710161910520e-03
3.228033849769569e-01 2.906951044012119e-01 2.660729989646195e-02
8.209969311477472e-02 1.703442296782615e-01 -6.986038520476748e-04
5.770987728469046e-02 1.542953226035338e-01 -5.460710161910520e-03
2.040372764375336e-01 2.233789133117218e-01 1.375124538256611e-02
-5.095280504953559e-02 2.868586836080950e-01 3.083140460623923e-02
-1.025288386115406e-01 3.840702160078905e-01 2.141564838294796e-02
-1.509349730753033e-01 5.894899056340253e-01 1.272155452944101e-02
-8.641489209560294e-02 4.665151357778565e-01 3.326682011359816e-02
-1.025288386115406e-01 3.840702160078905e-01 2.141564838294796e-02
-1.529125496420580e-01 4.803016146485247e-01 1.097449319696731e-02
-2.153200226872518e-01 7.320785820027178e-01 -1.043940600384863e-02
-1.509349730753033e-01 5.894899056340253e-01 1.272155452944101e-02
0.000000000000000e+00 0.000000000000000e+00 0.000000000000000e+00
0.000000000000000e+00 0.000000000000000e+00 0.000000000000000e+00
-2.915463289255227e-02 6.377311270805891e-02 4.014489638241248e-03
-2.600966505232394e-03 9.169453958490170e-03 3.406764764801729e-04
0.000000000000000e+00 0.000000000000000e+00 0.000000000000000e+00
0.000000000000000e+00 0.000000000000000e+00 0.000000000000000e+00
-5.517901373894513e-02 7.885528858648300e-02 1.291894373681846e-02
-2.915463289255227e-02 6.377311270805891e-02 4.014489638241248e-03
-2.600966505232394e-03 9.169453958490170e-03 3.406764764801729e-04
-2.915463289255227e-02 6.377311270805891e-02 4.014489638241248e-03
-6.064099399172074e-02 1.956896709781157e-01 1.740615924373623e-02
-1.992441473662654e-02 1.325082584985139e-01 2.287267036668439e-02
-2.915463289255227e-02 6.377311270805891e-02 4.014489638241248e-03
-5.517901373894513e-02 7.885528858648300e-02 1.291894373681846e-02
-1.058430174078596e-01 2.531199628751724e-01 1.207495723581742e-02
-6.064099399172074e-02 1.956896709781157e-01 1.740615924373623e-02
-6.064099399172074e-02 1.956896709781157e-01 1.740615924373623e-02
-1.058430174078596e-01 2.531199628751724e-01 1.207495723581742e-02
-1.529125496420580e-01 4.803016146485247e-01 1.097449319696731e-02
-1.025288386115406e-01 3.840702160078905e-01 2.141564838294796e-02
-1.992441473662654e-02 1.325082584985139e-01 2.287267036668439e-02
-6.064099399172074e-02 1.956896709781157e-01 1.740615924373623e-02
-1.025288386115406e-01 3.840702160078905e-01 2.141564838294796e-02
-5.095280504953559e-02 2.868586836080950e-01 3.083140460623923e-02
-1.055631799593748e-02 5.147126147359704e-02 -3.932777395651676e-03
0.000000000000000e+00 0.000000000000000e+00 0.000000000000000e+00
0.000000000000000e+00 0.000000000000000e+00 0.000000000000000e+00
-9.099331752911222e-03 2.797602679632183e-02 6.779091965274375e-04
-1.130383876274144e-02 1.434571156146203e-02 -2.799765665061571e-03
0.000000000000000e+00 0.000000000000000e+00 0.000000000000000e+00
-5.368186519456530e-03 8.008710408622166e-03 2.413532498759530e-03
-9.365076244164883e-03 4.214972268944883e-02 -1.525330577795359e-03
5.298517305067629e-02 1.499551477648056e-01 -3.504413904691361e-04
-1.055631799593748e-02 5.147126147359704e-02 -3.932777395651676e-03
-9.099331752911222e-03 2.797602679632183e-02 6.779091965274375e-04
3.332059328308090e-02 1.055261229176797e-01 -1.724473358565071e-03
1.164739585563179e-02 1.016530687345719e-01 -2.290165633962893e-03
-9.365076244164883e-03 4.214972268944883e-02 -1.525330577795359e-03
2.111598039005624e-03 6.540377762214833e-02 5.115971242171113e-04
4.428142869878104e-02 1.267409790301259e-01 -1.228024160207397e-03
-8.879906139646232e-03 6.107661977385170e-02 -6.434441037511007e-03
0.000000000000000e+00 0.000000000000000e+00 0.000000000000000e+00
0.000000000000000e+00 0.000000000000000e+00 0.000000000000000e+00
-1.055631799593748e-02 5.147126147359704e-02 -3.932777395651676e-03
-1.057730991298161e-02 1.500595655322101e-02 -4.755040401893673e-03
0.000000000000000e+00 0.000000000000000e+00 0.000000000000000e+00
-1.130383876274144e-02 1.434571156146203e-02 -2.799765665061571e-03
-8.345869904653636e-03 5.880584205092743e-02 -6.178390017469226e-03
7.289068482117222e-02 1.915743874987959e-01 -5.971358415066241e-03
-8.879906139646232e-03 6.107661977385170e-02 -6.434441037511007e-03
-1.055631799593748e-02 5.147126147359704e-02 -3.932777395651676e-03
5.298517305067629e-02 1.499551477648056e-01 -3.504413904691361e-04
1.827160182819720e-02 1.268485300705762e-01 -7.036715533564220e-03
-8.345869904653636e-03 5.880584205092743e-02 -6.178390017469226e-03
1.164739585563179e-02 1.016530687345719e-01 -2.290165633962893e-03
6.355212484511363e-02 1.737471294519265e-01 -2.267251671511872e-03
2.490922719103321e-01 2.808188646900159e-01 7.396791495859034e-03
7.289068482117222e-02 1.915743874987959e-01 -5.971358415066241e-03
5.298517305067629e-02 1.499551477648056e-01 -3.504413904691361e-04
1.847579813669971e-01 2.092539648070509e-01 -1.591355941613593e-02
1.553332301636003e-01 2.487489845226427e-01 7.765353001041753e-03
6.355212484511363e-02 1.737471294519265e-01 -2.267251671511872e-03
1.128077741718596e-01 1.881758381283339e-01 -2.684706061691244e-03
2.116013261950380e-01 2.418551353970523e-01 -5.518279408758708e-03
1.022741406821411e-01 2.380798153284521e-01 9.135355547624791e-03
-9.340131791498840e-03 6.120130835556459e-02 -9.298777620252885e-03
-8.879906139646232e-03 6.107661977385170e-02 -6.434441037511007e-03
7.289068482117222e-02 1.915743874987959e-01 -5.971358415066241e-03
2.205002322183836e-02 1.442289039186714e-01 -3.457350324453046e-03
-8.635039592631677e-03 6.361148192959554e-02 -6.221325896171415e-03
1.827160182819720e-02 1.268485300705762e-01 -7.036715533564220e-03
9.070743721009356e-02 2.148284470433390e-01 -3.199832956397586e-04
3.713125019683861e-01 3.525668146493429e-01 3.661406225943686e-02
1.022741406821411e-01 2.380798153284521e-01 9.135355547624791e-03
7.289068482117222e-02 1.915743874987959e-01 -5.971358415066241e-03
2.490922719103321e-01 2.808188646900159e-01 7.396791495859034e-03
2.418619044969987e-01 3.111183131395465e-01 2.516429489989136e-02
9.070743721009356e-02 2.148284470433390e-01 -3.199832956397586e-04
1.553332301636003e-01 2.487489845226427e-01 7.765353001041753e-03
3.003724875008031e-01 3.166890342543318e-01 1.757514512013270e-02
-1.532365409899810e-01 4.960441957246751e-01 5.505019452400006e-02
-2.128256217884719e-01 5.673970758843681e-01 5.076842255749092e-02
-3.162580925501546e-01 8.648307898990235e-01 4.170096344144625e-02
-2.474327415514119e-01 7.788192011113189e-01 5.760634104952977e-02
-1.844333851905398e-01 5.325383406975936e-01 5.186224752173452e-02
-2.657421176135855e-01 7.148049322850252e-01 4.586121310424218e-02
-2.800052058399658e-01 8.208298447127791e-01 5.104997973475278e-02
-1.994510400390910e-01 6.351265242366095e-01 5.694827769155175e-02
-2.128256217884719e-01 5.673970758843681e-01 5.076842255749092e-02
-2.743507574392778e-01 6.313374367462765e-01 4.271009388459568e-02
-3.934235487595554e-01 9.831163899026085e-01 1.833368042328942e-02
-3.162580925501546e-01 8.648307898990235e-01 4.170096344144625e-02
-2.392221977165228e-01 6.021353191088676e-01 4.936063876459151e-02
-3.315327488562090e-01 8.090750159289111e-01 3.265321622644812e-02
-3.555719485285933e-01 9.167728233133623e-01 3.147540058820653e-02
-2.657421176135855e-01 7.148049322850252e-01 4.586121310424218e-02
-6.891968689174965e-02 2.426807152769204e-01 4.033807962167568e-02
-1.194910200565006e-01 2.974169225640774e-01 4.142002932815458e-02
-2.128256217884719e-01 5.673970758843681e-01 5.076842255749092e-02
-1.532365409899810e-01 4.960441957246751e-01 5.505019452400006e-02
-9.708771345900424e-02 2.705716955102116e-01 4.002368499978548e-02
-1.626637437554825e-01 4.288883814804310e-01 5.024690866447656e-02
-1.844333851905398e-01 5.325383406975936e-01 5.186224752173452e-02
-1.093216856461621e-01 3.643885486923676e-01 4.969088139107658e-02
-1.194910200565006e-01 2.974169225640774e-01 4.142002932815458e-02
-1.721352232109326e-01 3.259420225419010e-01 3.748004407808381e-02
-2.743507574392778e-01 6.313374367462765e-01 4.271009388459568e-02
-2.128256217884719e-01 5.673970758843681e-01 5.076842255749092e-02
-1.477417837786688e-01 3.139613126951674e-01 3.895207937890000e-02
-2.215734978156838e-01 4.723387783486507e-01 4.289740372207618e-02
-2.392221977165228e-01 6.021353191088676e-01 4.936063876459151e-02
-1.626637437554825e-01 4.288883814804310e-01 5.024690866447656e-02
-1.229207770731411e-02 5.157775548573446e-02 1.035388182882713e-02
-5.258276658081146e-02 8.902457448370027e-02 1.393232887514273e-02
-1.194910200565006e-01 2.974169225640774e-01 4.142002932815458e-02
-6.891968689174965e-02 2.426807152769204e-01 4.033807962167568e-02
-3.311007952729184e-02 7.378254933303824e-02 1.135641873386195e-02
-8.298866057124388e-02 1.803041091215482e-01 2.675474689481661e-02
-9.708771345900424e-02 2.705716955102116e-01 4.002368499978548e-02
-3.504831635275318e-02 1.351486313496580e-01 2.558533885878678e-02
-5.258276658081146e-02 8.902457448370027e-02 1.393232887514273e-02
-8.199982029094238e-02 9.226007093823013e-02 2.293438230850775e-02
-1.721352232109326e-01 3.259420225419010e-01 3.748004407808381e-02
-1.194910200565006e-01 2.974169225640774e-01 4.142002932815458e-02
-6.881393697526905e-02 9.601477805178166e-02 1.695424928262490e-02
-1.259835543467621e-01 1.978369736357034e-01 3.101194713838673e-02
-1.477417837786688e-01 3.139613126951674e-01 3.895207937890000e-02
-8.298866057124388e-02 1.803041091215482e-01 2.675474689481661e-02
0.000000000000000e+00 0.000000000000000e+00 0.000000000000000e+00
0.000000000000000e+00 0.000000000000000e+00 0.000000000000000e+00
-5.258276658081146e-02 8.902457448370027e-02 1.393232887514273e-02
-1.229207770731411e-02 5.157775548573446e-02 1.035388182882713e-02
0.000000000000000e+00 0.000000000000000e+00 0.000000000000000e+00
-2.582932005293762e-02 2.878672198150656e-02 3.606219920625264e-03
-3.311007952729184e-02 7.378254933303824e-02 1.135641873386195e-02
-2.944578665195735e-03 5.824661200150127e-03 6.376129141809628e-04
0.000000000000000e+00 0.000000000000000e+00 0.000000000000000e+00
0.000000000000000e+00 0.000000000000000e+00 0.000000000000000e+00
-8.199982029094238e-02 9.226007093823013e-02 2.293438230850775e-02
-5.258276658081146e-02 8.902457448370027e-02 1.393232887514273e-02
0.000000000000000e+00 0.000000000000000e+00 0.000000000000000e+00
-3.999636250205391e-02 2.479009922247005e-02 1.607858032499365e-02
-6.881393697526905e-02 9.601477805178166e-02 1.695424928262490e-02
-2.582932005293762e-02 2.878672198150656e-02 3.606219920625264e-03
        </DataArray>
        <DataArray type="Float64" Name="normal_averaged" NumberOfComponents="3" format="ascii">
0.000000000000000e+00 0.000000000000000e+00 0.000000000000000e+00
0.000000000000000e+00 0.000000000000000e+00 0.000000000000000e+00
0.000000000000000e+00 0.000000000000000e+00 0.000000000000000e+00
0.000000000000000e+00 0.000000000000000e+00 0.000000000000000e+00
0.000000000000000e+00 0.000000000000000e+00 0.000000000000000e+00
0.000000000000000e+00 0.000000000000000e+00 0.000000000000000e+00
0.000000000000000e+00 0.000000000000000e+00 0.000000000000000e+00
0.000000000000000e+00 0.000000000000000e+00 0.000000000000000e+00
0.000000000000000e+00 0.000000000000000e+00 0.000000000000000e+00
0.000000000000000e+00 0.000000000000000e+00 0.000000000000000e+00
0.000000000000000e+00 0.000000000000000e+00 0.000000000000000e+00
0.000000000000000e+00 0.000000000000000e+00 0.000000000000000e+00
0.000000000000000e+00 0.000000000000000e+00 0.000000000000000e+00
0.000000000000000e+00 0.000000000000000e+00 0.000000000000000e+00
0.000000000000000e+00 0.000000000000000e+00 0.000000000000000e+00
0.000000000000000e+00 0.000000000000000e+00 0.000000000000000e+00
0.000000000000000e+00 0.000000000000000e+00 0.000000000000000e+00
0.000000000000000e+00 0.000000000000000e+00 0.000000000000000e+00
0.000000000000000e+00 0.000000000000000e+00 0.000000000000000e+00
0.000000000000000e+00 0.000000000000000e+00 0.000000000000000e+00
0.000000000000000e+00 0.000000000000000e+00 0.000000000000000e+00
0.000000000000000e+00 0.000000000000000e+00 0.000000000000000e+00
0.000000000000000e+00 0.000000000000000e+00 0.000000000000000e+00
0.000000000000000e+00 0.000000000000000e+00 0.000000000000000e+00
0.000000000000000e+00 0.000000000000000e+00 0.000000000000000e+00
0.000000000000000e+00 0.000000000000000e+00 0.000000000000000e+00
0.000000000000000e+00 0.000000000000000e+00 0.000000000000000e+00
0.000000000000000e+00 0.000000000000000e+00 0.000000000000000e+00
0.000000000000000e+00 0.000000000000000e+00 0.000000000000000e+00
0.000000000000000e+00 0.000000000000000e+00 0.000000000000000e+00
0.000000000000000e+00 0.000000000000000e+00 0.000000000000000e+00
0.000000000000000e+00 0.000000000000000e+00 0.000000000000000e+00
0.000000000000000e+00 0.000000000000000e+00 0.000000000000000e+00
0.000000000000000e+00 0.000000000000000e+00 0.000000000000000e+00
0.000000000000000e+00 0.000000000000000e+00 0.000000000000000e+00
0.000000000000000e+00 0.000000000000000e+00 0.000000000000000e+00
0.000000000000000e+00 0.000000000000000e+00 0.000000000000000e+00
0.000000000000000e+00 0.000000000000000e+00 0.000000000000000e+00
0.000000000000000e+00 0.000000000000000e+00 0.000000000000000e+00
0.000000000000000e+00 0.000000000000000e+00 0.000000000000000e+00
0.000000000000000e+00 0.000000000000000e+00 0.000000000000000e+00
0.000000000000000e+00 0.000000000000000e+00 0.000000000000000e+00
0.000000000000000e+00 0.000000000000000e+00 0.000000000000000e+00
0.000000000000000e+00 0.000000000000000e+00 0.000000000000000e+00
0.000000000000000e+00 0.000000000000000e+00 0.000000000000000e+00
0.000000000000000e+00 0.000000000000000e+00 0.000000000000000e+00
0.000000000000000e+00 0.000000000000000e+00 0.000000000000000e+00
0.000000000000000e+00 0.000000000000000e+00 0.000000000000000e+00
0.000000000000000e+00 0.000000000000000e+00 0.000000000000000e+00
0.000000000000000e+00 0.000000000000000e+00 0.000000000000000e+00
0.000000000000000e+00 0.000000000000000e+00 0.000000000000000e+00
0.000000000000000e+00 0.000000000000000e+00 0.000000000000000e+00
0.000000000000000e+00 0.000000000000000e+00 0.000000000000000e+00
0.000000000000000e+00 0.000000000000000e+00 0.000000000000000e+00
0.000000000000000e+00 0.000000000000000e+00 0.000000000000000e+00
0.000000000000000e+00 0.000000000000000e+00 0.000000000000000e+00
0.000000000000000e+00 0.000000000000000e+00 0.000000000000000e+00
0.000000000000000e+00 0.000000000000000e+00 0.000000000000000e+00
0.000000000000000e+00 0.000000000000000e+00 0.000000000000000e+00
0.000000000000000e+00 0.000000000000000e+00 0.000000000000000e+00
0.000000000000000e+00 0.000000000000000e+00 0.000000000000000e+00
0.000000000000000e+00 0.000000000000000e+00 0.000000000000000e+00
0.000000000000000e+00 0.000000000000000e+00 0.000000000000000e+00
0.000000000000000e+00 0.000000000000000e+00 0.000000000000000e+00
0.000000000000000e+00 0.000000000000000e+00 0.000000000000000e+00
0.000000000000000e+00 0.000000000000000e+00 0.000000000000000e+00
0.000000000000000e+00 0.000000000000000e+00 0.000000000000000e+00
0.000000000000000e+00 0.000000000000000e+00 0.000000000000000e+00
0.000000000000000e+00 0.000000000000000e+00 0.000000000000000e+00