<?xml version="1.0" ?> 
<!-- 
# vtk DataFile Version 3.0
-->
<VTKFile type="UnstructuredGrid" version="0.1" compressor="vtkZLibDataCompressor" byte_order="LittleEndian">
  <UnstructuredGrid>
    <FieldData>
      <DataArray type="Float64" Name="TIME" NumberOfTuples="1" format="ascii">
3.000000000000000e+00 
      </DataArray>
      <DataArray type="Float64" Name="sum_coupling_force_beam" NumberOfTuples="1" NumberOfComponents="3" format="ascii">
1.042099437828401e-01 5.496450028636308e-02 4.059808747642286e-03 
      </DataArray>
      <DataArray type="Float64" Name="sum_coupling_force_solid" NumberOfTuples="1" NumberOfComponents="3" format="ascii">
-1.042099437828402e-01 -5.496450028636306e-02 -4.059808747642286e-03 
      </DataArray>
      <DataArray type="Float64" Name="sum_coupling_moment_beam" NumberOfTuples="1" NumberOfComponents="3" format="ascii">
-5.448105137065220e-02 1.320920786668311e-01 1.277092911907351e-03 
      </DataArray>
      <DataArray type="Float64" Name="sum_coupling_moment_solid" NumberOfTuples="1" NumberOfComponents="3" format="ascii">
5.706547624604869e-01 -1.154303444625703e+00 4.791932029383422e-02 
      </DataArray>
    </FieldData>

    <Piece NumberOfPoints="927" NumberOfCells="0" >
      <Points>
        <DataArray type="Float64" NumberOfComponents="3" format="ascii">
7.000000000000000e-01 0.000000000000000e+00 0.000000000000000e+00
6.062177826489999e-01 3.500000000000000e-01 0.000000000000000e+00
6.062177826489999e-01 3.500000000000000e-01 5.000000000000000e-01
7.000000000000000e-01 0.000000000000000e+00 5.000000000000000e-01
1.000000000000000e+00 0.000000000000000e+00 0.000000000000000e+00
8.660254037839999e-01 5.000000000000000e-01 0.000000000000000e+00
8.660254037839999e-01 5.000000000000000e-01 5.000000000000000e-01
1.000000000000000e+00 0.000000000000000e+00 5.000000000000000e-01
3.500000000000000e-01 6.062177826489999e-01 0.000000000000000e+00
3.500000000000000e-01 6.062177826489999e-01 5.000000000000000e-01
5.000000000000000e-01 8.660254037839999e-01 0.000000000000000e+00
5.000000000000000e-01 8.660254037839999e-01 5.000000000000000e-01
0.000000000000000e+00 7.000000000000000e-01 0.000000000000000e+00
0.000000000000000e+00 7.000000000000000e-01 5.000000000000000e-01
0.000000000000000e+00 1.000000000000000e+00 0.000000000000000e+00
0.000000000000000e+00 1.000000000000000e+00 5.000000000000000e-01
6.062177826489999e-01 3.500000000000000e-01 1.000000000000000e+00
7.000000000000000e-01 0.000000000000000e+00 1.000000000000000e+00
8.660254037839999e-01 5.000000000000000e-01 1.000000000000000e+00
1.000000000000000e+00 0.000000000000000e+00 1.000000000000000e+00
3.500000000000000e-01 6.062177826489999e-01 1.000000000000000e+00
5.000000000000000e-01 8.660254037839999e-01 1.000000000000000e+00
0.000000000000000e+00 7.000000000000000e-01 1.000000000000000e+00
0.000000000000000e+00 1.000000000000000e+00 1.000000000000000e+00
6.062177826489999e-01 3.500000000000000e-01 1.500000000000000e+00
7.000000000000000e-01 0.000000000000000e+00 1.500000000000000e+00
8.660254037839999e-01 5.000000000000000e-01 1.500000000000000e+00
1.000000000000000e+00 0.000000000000000e+00 1.500000000000000e+00
3.500000000000000e-01 6.062177826489999e-01 1.500000000000000e+00
5.000000000000000e-01 8.660254037839999e-01 1.500000000000000e+00
0.000000000000000e+00 7.000000000000000e-01 1.500000000000000e+00
0.000000000000000e+00 1.000000000000000e+00 1.500000000000000e+00
0.000000000000000e+00 0.000000000000000e+00 3.500000000000000e+00
0.000000000000000e+00 0.000000000000000e+00 3.000000000000000e+00
0.000000000000000e+00 3.000000000000000e-01 3.000000000000000e+00
0.000000000000000e+00 3.000000000000000e-01 3.500000000000000e+00
5.000000000000000e-01 0.000000000000000e+00 3.500000000000000e+00
5.000000000000000e-01 0.000000000000000e+00 3.000000000000000e+00
5.000000000000000e-01 3.000000000000000e-01 3.000000000000000e+00
5.000000000000000e-01 3.000000000000000e-01 3.500000000000000e+00
0.000000000000000e+00 0.000000000000000e+00 2.500000000000000e+00
0.000000000000000e+00 3.000000000000000e-01 2.500000000000000e+00
5.000000000000000e-01 0.000000000000000e+00 2.500000000000000e+00
5.000000000000000e-01 3.000000000000000e-01 2.500000000000000e+00
1.000000000000000e+00 0.000000000000000e+00 3.500000000000000e+00
1.000000000000000e+00 0.000000000000000e+00 3.000000000000000e+00
1.000000000000000e+00 3.000000000000000e-01 3.000000000000000e+00
1.000000000000000e+00 3.000000000000000e-01 3.500000000000000e+00
1.000000000000000e+00 0.000000000000000e+00 2.500000000000000e+00
1.000000000000000e+00 3.000000000000000e-01 2.500000000000000e+00
1.500000000000000e+00 0.000000000000000e+00 3.500000000000000e+00
1.500000000000000e+00 0.000000000000000e+00 3.000000000000000e+00
1.500000000000000e+00 3.000000000000000e-01 3.000000000000000e+00
1.500000000000000e+00 3.000000000000000e-01 3.500000000000000e+00
1.500000000000000e+00 0.000000000000000e+00 2.500000000000000e+00
1.500000000000000e+00 3.000000000000000e-01 2.500000000000000e+00
2.000000000000000e+00 0.000000000000000e+00 3.500000000000000e+00
2.000000000000000e+00 0.000000000000000e+00 3.000000000000000e+00
2.000000000000000e+00 3.000000000000000e-01 3.000000000000000e+00
2.000000000000000e+00 3.000000000000000e-01 3.500000000000000e+00
2.000000000000000e+00 0.000000000000000e+00 2.500000000000000e+00
2.000000000000000e+00 3.000000000000000e-01 2.500000000000000e+00
7.000000000000000e-01 0.000000000000000e+00 5.000000000000000e+00
6.062177826489999e-01 3.500000000000000e-01 5.000000000000000e+00
6.062177826489999e-01 3.500000000000000e-01 5.500000000000000e+00
7.000000000000000e-01 0.000000000000000e+00 5.500000000000000e+00
1.000000000000000e+00 0.000000000000000e+00 5.000000000000000e+00
8.660254037839999e-01 5.000000000000000e-01 5.000000000000000e+00
8.660254037839999e-01 5.000000000000000e-01 5.500000000000000e+00
1.000000000000000e+00 0.000000000000000e+00 5.500000000000000e+00
6.761480784020000e-01 1.811733315720000e-01 5.000000000000000e+00
6.062177826489999e-01 3.500000000000000e-01 5.250000000000000e+00
6.761480784020000e-01 1.811733315720000e-01 5.500000000000000e+00
7.000000000000000e-01 0.000000000000000e+00 5.250000000000000e+00
8.500000000000000e-01 0.000000000000000e+00 5.000000000000000e+00
7.361215932170000e-01 4.250000000000000e-01 5.000000000000000e+00
7.361215932170000e-01 4.250000000000000e-01 5.500000000000000e+00
8.500000000000000e-01 0.000000000000000e+00 5.500000000000000e+00
9.659258262890000e-01 2.588190451030000e-01 5.000000000000000e+00
8.660254037839999e-01 5.000000000000000e-01 5.250000000000000e+00
9.659258262890000e-01 2.588190451030000e-01 5.500000000000000e+00
1.000000000000000e+00 0.000000000000000e+00 5.250000000000000e+00
3.500000000000000e-01 6.062177826489999e-01 5.000000000000000e+00
3.500000000000000e-01 6.062177826489999e-01 5.500000000000000e+00
5.000000000000000e-01 8.660254037839999e-01 5.000000000000000e+00
5.000000000000000e-01 8.660254037839999e-01 5.500000000000000e+00
4.949747468310000e-01 4.949747468310000e-01 5.000000000000000e+00
3.500000000000000e-01 6.062177826489999e-01 5.250000000000000e+00
4.949747468310000e-01 4.949747468310000e-01 5.500000000000000e+00
4.250000000000000e-01 7.361215932170000e-01 5.000000000000000e+00
4.250000000000000e-01 7.361215932170000e-01 5.500000000000000e+00
7.071067811870000e-01 7.071067811870000e-01 5.000000000000000e+00
5.000000000000000e-01 8.660254037839999e-01 5.250000000000000e+00
7.071067811870000e-01 7.071067811870000e-01 5.500000000000000e+00
0.000000000000000e+00 7.000000000000000e-01 5.000000000000000e+00
0.000000000000000e+00 7.000000000000000e-01 5.500000000000000e+00
0.000000000000000e+00 1.000000000000000e+00 5.000000000000000e+00
0.000000000000000e+00 1.000000000000000e+00 5.500000000000000e+00
1.811733315720000e-01 6.761480784020000e-01 5.000000000000000e+00
0.000000000000000e+00 7.000000000000000e-01 5.250000000000000e+00
1.811733315720000e-01 6.761480784020000e-01 5.500000000000000e+00
0.000000000000000e+00 8.500000000000000e-01 5.000000000000000e+00
0.000000000000000e+00 8.500000000000000e-01 5.500000000000000e+00
2.588190451030000e-01 9.659258262890000e-01 5.000000000000000e+00
0.000000000000000e+00 1.000000000000000e+00 5.250000000000000e+00
2.588190451030000e-01 9.659258262890000e-01 5.500000000000000e+00
6.062177826489999e-01 3.500000000000000e-01 6.000000000000000e+00
7.000000000000000e-01 0.000000000000000e+00 6.000000000000000e+00
8.660254037839999e-01 5.000000000000000e-01 6.000000000000000e+00
1.000000000000000e+00 0.000000000000000e+00 6.000000000000000e+00
6.062177826489999e-01 3.500000000000000e-01 5.750000000000000e+00
6.761480784020000e-01 1.811733315720000e-01 6.000000000000000e+00
7.000000000000000e-01 0.000000000000000e+00 5.750000000000000e+00
7.361215932170000e-01 4.250000000000000e-01 6.000000000000000e+00
8.500000000000000e-01 0.000000000000000e+00 6.000000000000000e+00
8.660254037839999e-01 5.000000000000000e-01 5.750000000000000e+00
9.659258262890000e-01 2.588190451030000e-01 6.000000000000000e+00
1.000000000000000e+00 0.000000000000000e+00 5.750000000000000e+00
3.500000000000000e-01 6.062177826489999e-01 6.000000000000000e+00
5.000000000000000e-01 8.660254037839999e-01 6.000000000000000e+00
3.500000000000000e-01 6.062177826489999e-01 5.750000000000000e+00
4.949747468310000e-01 4.949747468310000e-01 6.000000000000000e+00
4.250000000000000e-01 7.361215932170000e-01 6.000000000000000e+00
5.000000000000000e-01 8.660254037839999e-01 5.750000000000000e+00
7.071067811870000e-01 7.071067811870000e-01 6.000000000000000e+00
0.000000000000000e+00 7.000000000000000e-01 6.000000000000000e+00
0.000000000000000e+00 1.000000000000000e+00 6.000000000000000e+00
0.000000000000000e+00 7.000000000000000e-01 5.750000000000000e+00
1.811733315720000e-01 6.761480784020000e-01 6.000000000000000e+00
0.000000000000000e+00 8.500000000000000e-01 6.000000000000000e+00
0.000000000000000e+00 1.000000000000000e+00 5.750000000000000e+00
[...]
  <PointData>
        <DataArray type="Float64" Name="displacement" NumberOfComponents="3" format="ascii">
3.264962259447514e-01 1.710838478779468e-01 -2.419824403554073e-02
1.612700853873743e-01 9.657870525762180e-02 -1.397271036511845e-02
1.145273378860174e-01 8.928639290344015e-02 -1.987981250226325e-02
2.283610404339499e-01 1.304387680405458e-01 -3.613898946793309e-02
3.228033849769572e-01 2.906951044012111e-01 2.660729989646228e-02
8.209969311477450e-02 1.703442296782612e-01 -6.986038520477505e-04
5.770987728469033e-02 1.542953226035335e-01 -5.460710161910457e-03
2.040372764375331e-01 2.233789133117217e-01 1.375124538256618e-02
4.698701351673116e-02 2.528237617026702e-02 6.525787655843626e-04
3.890116842008639e-02 3.173415103619079e-02 -1.237558804113541e-02
-1.227613910547755e-02 3.806658461817736e-02 -1.148625098063113e-02
-9.783146329417323e-03 4.936484972242224e-02 -7.883951317226605e-03
0.000000000000000e+00 0.000000000000000e+00 0.000000000000000e+00
0.000000000000000e+00 0.000000000000000e+00 0.000000000000000e+00
0.000000000000000e+00 0.000000000000000e+00 0.000000000000000e+00
0.000000000000000e+00 0.000000000000000e+00 0.000000000000000e+00
8.244907269179312e-02 8.266980569001944e-02 -1.742100690677106e-02
1.540001115108168e-01 1.137281134154861e-01 -2.822185391689024e-02
4.378309358412706e-02 1.382995859510271e-01 -1.241252791513576e-03
1.468607405545035e-01 1.749738534725054e-01 9.235517072399006e-04
2.617063402944286e-02 2.721037064553246e-02 -6.364095900742980e-03
-1.787595007732088e-02 3.718189263244537e-02 -9.880670016582780e-03
0.000000000000000e+00 0.000000000000000e+00 0.000000000000000e+00
0.000000000000000e+00 0.000000000000000e+00 0.000000000000000e+00
5.728185030611582e-02 7.680532532156245e-02 -1.463561087515840e-02
1.118868091430239e-01 9.125124775391683e-02 -2.856559231515045e-02
3.191047598436136e-02 1.077175692255200e-01 -8.391491755395123e-04
1.067813608159337e-01 1.411931305719285e-01 -4.568118627796819e-03
2.857471381396449e-02 4.818516651526503e-02 -3.152389763271189e-03
-8.823394735386893e-04 7.149604546698461e-02 -1.073193161999060e-02
0.000000000000000e+00 0.000000000000000e+00 0.000000000000000e+00
0.000000000000000e+00 0.000000000000000e+00 0.000000000000000e+00
0.000000000000000e+00 0.000000000000000e+00 0.000000000000000e+00
0.000000000000000e+00 0.000000000000000e+00 0.000000000000000e+00
0.000000000000000e+00 0.000000000000000e+00 0.000000000000000e+00
0.000000000000000e+00 0.000000000000000e+00 0.000000000000000e+00
2.574911648562691e-02 8.800462553927639e-02 1.672920613741861e-02
3.064814907599219e-02 7.049944746041743e-02 2.661728588286246e-02
-2.915463289255230e-02 6.377311270805891e-02 4.014489638241515e-03
-5.517901373894515e-02 7.885528858648301e-02 1.291894373681876e-02
0.000000000000000e+00 0.000000000000000e+00 0.000000000000000e+00
0.000000000000000e+00 0.000000000000000e+00 0.000000000000000e+00
4.267214529296168e-02 2.465431480189827e-02 4.060929305129411e-02
-2.600966505232370e-03 9.169453958490309e-03 3.406764764806337e-04
1.300690702469916e-02 2.817914186444818e-01 5.101274478346130e-02
3.609923478440511e-02 2.174013545417076e-01 5.926902628227679e-02
-6.064099399172068e-02 1.956896709781158e-01 1.740615924373695e-02
-1.058430174078599e-01 2.531199628751723e-01 1.207495723581770e-02
6.316888968091022e-02 1.481818425135157e-01 6.944114810819264e-02
-1.992441473662629e-02 1.325082584985139e-01 2.287267036668455e-02
-2.472199073559421e-02 5.203978672676186e-01 7.188934370306317e-02
1.293801329614569e-02 4.161798246189494e-01 8.566952292584876e-02
-1.025288386115404e-01 3.840702160078904e-01 2.141564838294851e-02
-1.529125496420586e-01 4.803016146485249e-01 1.097449319696706e-02
5.116327388121591e-02 3.136235667558726e-01 9.858424452752863e-02
-5.095280504953491e-02 2.868586836080947e-01 3.083140460623978e-02
-8.150012083661072e-02 7.687033210784234e-01 7.334016979216591e-02
-2.862170418892333e-02 6.301652884730117e-01 9.683060963964003e-02
-1.509349730753034e-01 5.894899056340253e-01 1.272155452944169e-02
-2.153200226872513e-01 7.320785820027178e-01 -1.043940600384703e-02
2.005675995059366e-02 4.973781074071624e-01 1.138087125096587e-01
-8.641489209560217e-02 4.665151357778558e-01 3.326682011359866e-02
3.826784022398858e-01 2.359060565795832e-01 -4.235259694751164e-02
2.036029139953809e-01 1.462752975694698e-01 -2.032565377386255e-02
1.458821307370362e-01 1.155209671856680e-01 -2.943579067625819e-02
2.731154208747701e-01 1.749432585228385e-01 -4.873871841999376e-02
3.713125019683866e-01 3.525668146493410e-01 3.661406225944004e-02
1.022741406821409e-01 2.380798153284507e-01 9.135355547622818e-03
7.289068482117231e-02 1.915743874987966e-01 -5.971358415065110e-03
2.490922719103318e-01 2.808188646900171e-01 7.396791495861422e-03
2.931953851499439e-01 2.026499355530698e-01 -3.033213910742416e-02
1.771422911477663e-01 1.284049937257742e-01 -2.770111354592062e-02
2.075973256916429e-01 1.521250564036507e-01 -4.050147928863067e-02
3.308300752272723e-01 2.007206892217976e-01 -4.712527437103974e-02
3.700323596020901e-01 2.990629755825673e-01 -3.626948424517565e-03
1.531560840478470e-01 1.913083928002835e-01 -4.965083515948363e-03
1.084686082581587e-01 1.534522689927696e-01 -1.537653421675229e-02
2.618504024138653e-01 2.270994541526768e-01 -2.176481282139906e-02
2.418619044969992e-01 3.111183131395452e-01 2.516429489989253e-02
9.070743721009368e-02 2.148284470433388e-01 -3.199832956417279e-04
1.553332301636004e-01 2.487489845226437e-01 7.765353001042022e-03
3.003724875008028e-01 3.166890342543311e-01 1.757514512013386e-02
6.141510036296355e-02 3.451054651501761e-02 1.712327153882667e-04
5.165810304767865e-02 3.681278018986108e-02 -1.156769657507167e-02
-9.340131791499551e-03 6.120130835556418e-02 -9.298777620252382e-03
-8.879906139646180e-03 6.107661977385218e-02 -6.434441037509089e-03
1.213779360104202e-01 8.507361211879683e-02 -8.658508154178403e-03
6.029433408062405e-02 3.783459150098369e-02 -8.744340648333649e-03
9.316965683860032e-02 7.520103067223217e-02 -2.056654603298394e-02
2.479412102919087e-02 4.448926331328514e-02 -5.085038407184273e-03
2.075658710011328e-02 4.570548737718787e-02 -8.729768098198233e-03
2.205002322183845e-02 1.442289039186711e-01 -3.457350324454744e-03
-8.635039592631490e-03 6.361148192959561e-02 -6.221325896171474e-03
1.827160182819702e-02 1.268485300705770e-01 -7.036715533563046e-03
0.000000000000000e+00 0.000000000000000e+00 0.000000000000000e+00
0.000000000000000e+00 0.000000000000000e+00 0.000000000000000e+00
0.000000000000000e+00 0.000000000000000e+00 0.000000000000000e+00
0.000000000000000e+00 0.000000000000000e+00 0.000000000000000e+00
2.317242160300481e-02 6.921213801487686e-03 4.457088344738193e-03
0.000000000000000e+00 0.000000000000000e+00 0.000000000000000e+00
2.159958915399714e-02 1.095461840773405e-02 -5.914305415600517e-03
0.000000000000000e+00 0.000000000000000e+00 0.000000000000000e+00
0.000000000000000e+00 0.000000000000000e+00 0.000000000000000e+00
-1.055479021574930e-02 1.074743810748682e-02 -6.939491787550142e-03
0.000000000000000e+00 0.000000000000000e+00 0.000000000000000e+00
-1.057730991298175e-02 1.500595655322133e-02 -4.755040401894068e-03
1.014588057595942e-01 8.913376714003995e-02 -2.828772962190779e-02
1.966399363229889e-01 1.276700911613664e-01 -4.994937145835398e-02
5.298517305067619e-02 1.499551477648076e-01 -3.504413904677182e-04
1.847579813669991e-01 2.092539648070540e-01 -1.591355941613386e-02
1.213068700926058e-01 1.036076452991913e-01 -2.865529844321181e-02
1.468827648114140e-01 1.135344560392875e-01 -3.773853710660577e-02
2.282752082315518e-01 1.513092740990904e-01 -4.965270082894942e-02
7.686895908288260e-02 1.192831659179537e-01 -1.476222041437157e-02
1.901891177919629e-01 1.680395059552793e-01 -3.307043452112161e-02
6.355212484511330e-02 1.737471294519279e-01 -2.267251671510759e-03
1.128077741718607e-01 1.881758381283367e-01 -2.684706061690502e-03
2.116013261950395e-01 2.418551353970543e-01 -5.518279408756925e-03
3.646339301951013e-02 3.119549332101329e-02 -1.385285014026739e-02
-1.055631799593778e-02 5.147126147359628e-02 -3.932777395655761e-03
4.389175847897215e-02 3.563991227042711e-02 -1.284626071274034e-02
6.484047221138721e-02 6.054579921114753e-02 -2.071592046354262e-02
1.281468248958049e-02 3.948647508969699e-02 -8.692112507757557e-03
-8.345869904654439e-03 5.880584205092625e-02 -6.178390017469769e-03
1.164739585563134e-02 1.016530687345729e-01 -2.290165633962280e-03
0.000000000000000e+00 0.000000000000000e+00 0.000000000000000e+00
0.000000000000000e+00 0.000000000000000e+00 0.000000000000000e+00
0.000000000000000e+00 0.000000000000000e+00 0.000000000000000e+00
1.555300950828984e-02 9.956515117928898e-03 -6.811515542391149e-03
0.000000000000000e+00 0.000000000000000e+00 0.000000000000000e+00
0.000000000000000e+00 0.000000000000000e+00 0.000000000000000e+00
-1.130383876274122e-02 1.434571156146189e-02 -2.799765665061597e-03
7.240079250628946e-02 5.227585633529547e-02 -3.038453792361599e-02
1.529108857454859e-01 8.244886742226171e-02 -5.110400739754573e-02
3.332059328308234e-02 1.055261229176849e-01 -1.724473358564998e-03
1.433190814256383e-01 1.536274264602054e-01 -2.364363894264349e-02
8.583360024463534e-02 7.210166338560284e-02 -2.873026703264783e-02
1.100860463023107e-01 7.143718939082278e-02 -3.921544114736637e-02
1.726145306279034e-01 1.048805015239383e-01 -5.006223309788935e-02
5.253097192973990e-02 7.871610932817823e-02 -1.570487442864922e-02
1.482046961108438e-01 1.179642688548103e-01 -3.749394537187126e-02
4.428142869878188e-02 1.267409790301295e-01 -1.228024160205936e-03
8.280230489243411e-02 1.364113689045734e-01 -8.819220990780410e-03
1.625495240451644e-01 1.792753682151838e-01 -2.121013843186306e-02
2.302373980664697e-02 1.192452517212231e-02 -1.677704867979884e-02
-9.099331752911916e-03 2.797602679632346e-02 6.779091965285252e-04
2.824123659012571e-02 2.443224323088995e-02 -1.439302531820566e-02
4.372300724394221e-02 3.095900578530058e-02 -2.423135623025846e-02
6.501612559174142e-03 1.861997213537093e-02 -7.865469159742925e-03
-9.365076244165377e-03 4.214972268945064e-02 -1.525330577798242e-03
2.111598039005885e-03 6.540377762215181e-02 5.115971242179134e-04
0.000000000000000e+00 0.000000000000000e+00 0.000000000000000e+00
0.000000000000000e+00 0.000000000000000e+00 0.000000000000000e+00
0.000000000000000e+00 0.000000000000000e+00 0.000000000000000e+00
9.542465233997341e-03 2.510784192871956e-03 -9.801906146362149e-03
0.000000000000000e+00 0.000000000000000e+00 0.000000000000000e+00
0.000000000000000e+00 0.000000000000000e+00 0.000000000000000e+00
-5.368186519457231e-03 8.008710408622189e-03 2.413532498767990e-03
0.000000000000000e+00 0.000000000000000e+00 0.000000000000000e+00
0.000000000000000e+00 0.000000000000000e+00 0.000000000000000e+00
0.000000000000000e+00 0.000000000000000e+00 0.000000000000000e+00
0.000000000000000e+00 0.000000000000000e+00 0.000000000000000e+00
2.547080298063473e-02 1.135700075194895e-01 1.997186086460093e-02
4.094268737719261e-02 1.070556677049572e-01 3.163833467796043e-02
-5.258276658081069e-02 8.902457448369815e-02 1.393232887514404e-02
-8.199982029094308e-02 9.226007093823087e-02 2.293438230850867e-02
0.000000000000000e+00 0.000000000000000e+00 0.000000000000000e+00
0.000000000000000e+00 0.000000000000000e+00 0.000000000000000e+00
0.000000000000000e+00 0.000000000000000e+00 0.000000000000000e+00
0.000000000000000e+00 0.000000000000000e+00 0.000000000000000e+00
1.922253462231116e-02 2.922596735271970e-02 2.653929935799945e-03
2.557987545111978e-02 3.493529707651752e-02 1.231629663787400e-02
-2.582932005293707e-02 2.878672198150578e-02 3.606219920625583e-03
-3.999636250205397e-02 2.479009922246998e-02 1.607858032499525e-02
3.490646322235787e-02 1.160778338608287e-01 2.570794347102999e-02
-5.485870744040501e-03 9.523459322903949e-02 2.365138925685690e-02
-6.881393697526852e-02 9.601477805178137e-02 1.695424928262392e-02
-2.784344763560546e-02 9.989400404555443e-02 2.130741073995790e-02
0.000000000000000e+00 0.000000000000000e+00 0.000000000000000e+00
0.000000000000000e+00 0.000000000000000e+00 0.000000000000000e+00
6.623847242028433e-02 7.148903000618656e-02 4.778134993662757e-02
-1.229207770731372e-02 5.157775548573482e-02 1.035388182882751e-02
0.000000000000000e+00 0.000000000000000e+00 0.000000000000000e+00
0.000000000000000e+00 0.000000000000000e+00 0.000000000000000e+00
0.000000000000000e+00 0.000000000000000e+00 0.000000000000000e+00
3.513450156680204e-02 1.799856368848218e-02 2.469211572033182e-02
-2.944578665195694e-03 5.824661200150083e-03 6.376129141809743e-04
4.850085678778187e-02 9.247999845500163e-02 3.754191892145572e-02
2.735170564595740e-02 5.938055476252375e-02 2.977973611722290e-02
-3.311007952729161e-02 7.378254933303746e-02 1.135641873386362e-02
-1.174144398969600e-02 3.767908440900903e-01 6.273239269887029e-02
2.457299172079966e-02 3.393155310618668e-01 7.510892449294818e-02
-1.194910200564993e-01 2.974169225640759e-01 4.142002932815442e-02
-1.721352232109329e-01 3.259420225419011e-01 3.748004407808508e-02
1.429940588238306e-02 2.341922027337105e-01 4.199433266172268e-02
4.084633906036628e-02 2.116266844642257e-01 5.416422627865117e-02
-8.298866057124252e-02 1.803041091215463e-01 2.675474689481728e-02
-1.259835543467625e-01 1.978369736357034e-01 3.101194713838601e-02
8.230359980591998e-03 3.623950928124606e-01 6.896820513937715e-02
-4.790588135390173e-02 3.175165324906344e-01 5.741659053002504e-02
-1.477417837786679e-01 3.139613126951670e-01 3.895207937890138e-02
-9.080358188867972e-02 3.509531662200437e-01 5.067024488754940e-02
6.926027492134541e-02 2.824395417948055e-01 8.880181169651645e-02
-6.891968689174940e-02 2.426807152769190e-01 4.033807962167512e-02
7.789254735532465e-02 1.641153027998145e-01 6.966841976986846e-02
-3.504831635275287e-02 1.351486313496580e-01 2.558533885878684e-02
4.372658736539090e-02 3.118506798470698e-01 8.203154756592722e-02
1.418394096114615e-03 2.620839920011864e-01 6.471833665083822e-02
-9.708771345900334e-02 2.705716955102103e-01 4.002368499978598e-02
-9.186783421393457e-02 7.053612694715159e-01 9.362263660134570e-02
-4.213046926459035e-02 6.290131124609744e-01 1.036525438088552e-01
-2.128256217884709e-01 5.673970758843662e-01 5.076842255748999e-02
-2.743507574392783e-01 6.313374367462770e-01 4.271009388459698e-02
-4.686506185059166e-02 5.349693320969924e-01 8.099863251111053e-02
-4.346885900932193e-03 4.797457965086638e-01 9.192037599002842e-02
-1.626637437554815e-01 4.288883814804293e-01 5.024690866447832e-02
-2.215734978156837e-01 4.723387783486503e-01 4.289740372207947e-02
-6.606547652859877e-02 6.677471201812982e-01 9.936005791975429e-02
-1.278153850193804e-01 5.970108039657656e-01 7.640374928153212e-02
-2.392221977165221e-01 6.021353191088663e-01 4.936063876459199e-02
-1.841332190201118e-01 6.674659989275586e-01 6.743442322648234e-02
9.958538779595363e-03 5.509863088577091e-01 1.133322642381445e-01
-1.532365409899786e-01 4.960441957246730e-01 5.505019452399882e-02
4.463819312055001e-02 4.131159883261853e-01 1.037602410218478e-01
-1.093216856461598e-01 3.643885486923659e-01 4.969088139107507e-02
-1.827803285499616e-02 5.897309485183287e-01 1.080122063004175e-01
-7.104059390020585e-02 5.235832021548985e-01 8.460836905878288e-02
-1.844333851905387e-01 5.325383406975921e-01 5.186224752173448e-02
-2.088424532285191e-01 1.043335525703524e+00 9.695732950193132e-02
-1.407071360304157e-01 9.318390865373072e-01 1.097885736677034e-01
-3.162580925501531e-01 8.648307898990218e-01 4.170096344144451e-02
-3.934235487595558e-01 9.831163899026091e-01 1.833368042328812e-02
-1.491024602925823e-01 8.784005678506974e-01 9.883882111757854e-02
-8.950623909878032e-02 7.809168706072186e-01 1.097253528311331e-01
-2.657421176135848e-01 7.148049322850243e-01 4.586121310424347e-02
-3.315327488562087e-01 8.090750159289105e-01 3.265321622644955e-02
-1.719882883742998e-01 9.887508860403967e-01 1.047643364590348e-01
-2.278076888809323e-01 8.991593468614457e-01 7.616535336280739e-02
-3.555719485285932e-01 9.167728233133614e-01 3.147540058820618e-02
-3.018318593315757e-01 1.010203188465155e+00 5.786179338056165e-02
-7.632648696022265e-02 8.398550895564253e-01 1.219191595858089e-01
-2.474327415514112e-01 7.788192011113171e-01 5.760634104953036e-02
-3.156402368125025e-02 6.943803591789127e-01 1.189149764409824e-01
-1.994510400390891e-01 6.351265242366070e-01 5.694827769155110e-02
-1.089135488417587e-01 8.832850573165760e-01 1.155925737076157e-01
-1.620488297267308e-01 8.088468917875117e-01 8.954475846197353e-02
-2.800052058399647e-01 8.208298447127773e-01 5.104997973475429e-02
3.868213887464764e-01 2.408493974145283e-01 -4.121336672222947e-02
2.029851231001407e-01 1.509372576873422e-01 -1.942433896720627e-02
1.466839089475009e-01 1.185382434359888e-01 -3.050686775213078e-02
2.763837443625963e-01 1.787671498127870e-01 -5.014070456521717e-02
3.762624156880137e-01 3.581842502926380e-01 3.497031427681728e-02
1.014401933274395e-01 2.440031265051900e-01 1.100158956526068e-02
7.389923125314005e-02 1.955121217535045e-01 -6.999314948059034e-03
2.526496317663946e-01 2.850251396679308e-01 6.351828230862330e-03
2.963068769083378e-01 2.074804402998594e-01 -3.066292888299159e-02
1.790314627535310e-01 1.320567169914394e-01 -2.750799395145606e-02
2.095259787059417e-01 1.562778762332622e-01 -4.036562734211960e-02
3.308381405371201e-01 2.067596111354059e-01 -4.632568348850315e-02
3.721605202031671e-01 3.042338658058047e-01 -4.440473820062197e-03
1.554856654087902e-01 1.953737707230048e-01 -4.771890962195714e-03
1.101898783935515e-01 1.567584407952871e-01 -1.482647576963909e-02
2.633184126627713e-01 2.317799633229118e-01 -2.164714659561218e-02
2.418144305358840e-01 3.171759079818807e-01 2.640994493303375e-02
9.063688072826794e-02 2.197157416979998e-01 1.184888086032572e-03
1.556065429345492e-01 2.544179401281855e-01 9.726289941071588e-03
2.989212374134368e-01 3.229552400954782e-01 2.035007296303103e-02
2.241920648138085e-01 2.327258299823921e-01 -1.140095607721662e-02
2.555371096429859e-01 1.775828740375830e-01 -3.824897055646489e-02
1.985023203136652e-01 2.839574799213089e-01 1.227591559590321e-02
3.155450413824063e-01 2.651400255722667e-01 -1.590873984180242e-02
1.348813303194868e-01 1.752039326715722e-01 -1.206935835823661e-02
2.653002303833966e-01 2.639311513793894e-01 -1.908735827401565e-03
1.831870733636694e-01 2.041923597535011e-01 -1.591891031105293e-02
6.303724973328503e-02 3.606513530529804e-02 -2.989464175620622e-04
5.245959711084434e-02 3.743033351593704e-02 -1.207668707474752e-02
-1.068165426211163e-02 6.369394386413790e-02 -8.564584392529190e-03
-9.927907211260864e-03 6.307194246623861e-02 -6.003289002777579e-03
1.227079136221913e-01 8.879658657808973e-02 -8.612585873515100e-03
6.089733800660147e-02 3.835330185610238e-02 -8.716052018117905e-03
9.367308395185982e-02 7.731832810155570e-02 -2.029915116953150e-02
2.576456557384037e-02 4.778528957033659e-02 -5.297342918077782e-03
2.110721022015828e-02 4.840291597725217e-02 -8.779551633268910e-03
2.469082943349185e-02 1.474866093945070e-01 -3.541063743647295e-03
-9.207640143463975e-03 6.521871772453763e-02 -7.169938399134431e-03
1.803682988785655e-02 1.289523568819379e-01 -6.396877007207870e-03
6.580529649022682e-02 1.094542613293343e-01 -1.051540977110387e-02
1.122094550578105e-01 8.276603024690721e-02 -1.725494240825129e-02
2.155184574819940e-02 1.400934299381086e-01 -3.851318752070728e-03
2.540831929029210e-02 4.960989474536606e-02 -7.466259020198575e-03
7.237603088766814e-02 1.162062912005350e-01 -5.912152377623535e-03
5.517358010513913e-02 1.015655779946043e-01 -1.238501549481916e-02
0.000000000000000e+00 0.000000000000000e+00 0.000000000000000e+00
0.000000000000000e+00 0.000000000000000e+00 0.000000000000000e+00
0.000000000000000e+00 0.000000000000000e+00 0.000000000000000e+00
0.000000000000000e+00 0.000000000000000e+00 0.000000000000000e+00
2.467649764019013e-02 7.670802291864567e-03 5.114150394731878e-03
0.000000000000000e+00 0.000000000000000e+00 0.000000000000000e+00