<?xml version="1.0" ?> 
<!-- 
# vtk DataFile Version 3.0
-->
<VTKFile type="UnstructuredGrid" version="0.1" compressor="vtkZLibDataCompressor" byte_order="LittleEndian">
  <UnstructuredGrid>
    <FieldData>
      <DataArray type="Float64" Name="TIME" NumberOfTuples="1" format="ascii">
1.000000000000000e+00 
      </DataArray>
    </FieldData>

    <Piece NumberOfPoints="24" NumberOfCells="0" >
      <Points>
        <DataArray type="Float64" NumberOfComponents="3" format="ascii">
1.000000000000000e+00 0.000000000000000e+00 -7.079632679490000e-02
7.071067811870000e-01 7.071067811870000e-01 7.146018366030000e-01
9.229551825145283e-01 3.823005540599319e-01 3.219027549043411e-01
7.071067811870000e-01 7.071067811870000e-01 7.146018366030000e-01
0.000000000000000e+00 1.000000000000000e+00 1.500000000000000e+00
3.823005540591954e-01 9.229551825132056e-01 1.107300918301373e+00
1.000000000000000e-01 3.000000000000000e-01 2.500000000000000e+00
1.150000000000000e+00 3.000000000000000e-01 3.050000000000000e+00
6.250000000000000e-01 3.000000000000000e-01 2.775000000000000e+00
1.150000000000000e+00 3.000000000000000e-01 3.050000000000000e+00
2.200000000000000e+00 3.000000000000000e-01 3.600000000000000e+00
1.675000000000000e+00 3.000000000000000e-01 3.325000000000000e+00
1.000000000000000e+00 0.000000000000000e+00 4.929203673210000e+00
7.071067811870000e-01 7.071067811870000e-01 5.714601836600000e+00
9.229551825141720e-01 3.823005540597842e-01 5.321902754905291e+00
7.071067811870000e-01 7.071067811870000e-01 5.714601836600000e+00
0.000000000000000e+00 1.000000000000000e+00 6.500000000000000e+00
3.823005540592515e-01 9.229551825133410e-01 6.107300918299872e+00
1.000000000000000e-01 3.000000000000000e-01 7.500000000000000e+00
1.150000000000000e+00 3.000000000000000e-01 8.050000000000001e+00
6.250000000000000e-01 3.000000000000000e-01 7.775000000000000e+00
1.150000000000000e+00 3.000000000000000e-01 8.050000000000001e+00
2.200000000000000e+00 3.000000000000000e-01 8.600000000000000e+00
1.675000000000000e+00 3.000000000000000e-01 8.324999999999999e+00
        </DataArray>
      </Points>

      <Cells>
        <DataArray type="Int32" Name="connectivity" format="ascii">

        </DataArray>
        <DataArray type="Int32" Name="offsets" format="ascii">

        </DataArray>
        <DataArray type="UInt8" Name="types" format="ascii">

        </DataArray>
      </Cells>

  <PointData>
        <DataArray type="Float64" Name="displacement" NumberOfComponents="3" format="ascii">
-3.720200327369849e-02 -3.228133965669607e-02 2.343838970040820e-02
-1.516997567414669e-02 -5.083845144167820e-03 -6.317662401051582e-03
-1.590464559312665e-02 -1.004733785071193e-02 -6.218269313799096e-04
-1.516997567414669e-02 -5.083845144167820e-03 -6.317662401051582e-03
0.000000000000000e+00 0.000000000000000e+00 0.000000000000000e+00
-1.337261149870106e-02 -9.867064207698117e-03 -8.612152135378581e-03
0.000000000000000e+00 0.000000000000000e+00 0.000000000000000e+00
0.000000000000000e+00 -1.665334536937735e-16 -8.881784197001252e-16
0.000000000000000e+00 -1.665334536937735e-16 -4.440892098500626e-16
0.000000000000000e+00 -1.665334536937735e-16 -8.881784197001252e-16
0.000000000000000e+00 3.885780586188048e-16 -8.881784197001252e-16
2.220446049250313e-16 5.551115123125783e-17 -1.332267629550188e-15
6.571822678902439e-04 7.271671190430247e-04 1.284235246750143e-04
2.718378198609539e-04 4.417570820368644e-04 7.037177424784602e-05
8.059101369127797e-04 6.631088410669062e-04 -1.473226460202426e-05
2.718378198609539e-04 4.417570820368644e-04 7.037177424784602e-05
0.000000000000000e+00 0.000000000000000e+00 0.000000000000000e+00
1.677615747897598e-04 3.676567951740317e-04 2.147228613225138e-05
0.000000000000000e+00 0.000000000000000e+00 0.000000000000000e+00
-2.220446049250313e-16 6.661338147750939e-16 0.000000000000000e+00
-3.330669073875470e-16 3.885780586188048e-16 8.881784197001252e-16
-2.220446049250313e-16 6.661338147750939e-16 0.000000000000000e+00
-1.332267629550188e-15 -1.498801083243961e-15 1.776356839400250e-15
4.440892098500626e-16 -4.996003610813204e-16 -1.776356839400250e-15
        </DataArray>
        <DataArray type="Float64" Name="lambda" NumberOfComponents="3" format="ascii">
1.569602017656382e-02 2.771803413189611e-02 -2.105450759295169e-03
1.301702376159040e-02 3.017502343799500e-02 1.676957540940155e-03
-3.964427683173520e-03 -1.086033375984563e-02 -1.377294978029143e-03
1.301702376159040e-02 3.017502343799500e-02 1.676957540940155e-03
7.214426450797171e-02 1.495270027614999e-01 2.408502571549591e-02
-3.679705379399825e-03 -1.202299323899376e-02 -2.602521559661038e-04
-2.820377627051555e-15 2.107404771079625e-15 -2.116012110827734e-14
3.958789515433813e-15 -3.852485633774578e-15 -1.629003978790500e-14
3.647025250182507e-15 -3.210334065452800e-15 -7.289762908958733e-15
3.958789515433813e-15 -3.852485633774578e-15 -1.629003978790500e-14
-5.627731658114042e-14 1.547626205981362e-14 1.125546331622808e-14
1.940597123488448e-15 -3.153470325668727e-15 -1.746537411139603e-14
7.008815492319493e-04 4.614419761796516e-04 -1.164555390955626e-04
4.503596138798420e-04 5.739179838320543e-04 9.850323594226607e-05
-2.335955102371134e-04 -1.750341354374362e-04 2.455681466816297e-05
4.503596138798420e-04 5.739179838320543e-04 9.850323594226607e-05
3.224501662043231e-04 6.722401533753355e-04 3.168295485050007e-04
-2.030245535729007e-04 -3.613397860903850e-04 -9.570778044448570e-05
4.407643965656733e-16 -2.963583180021336e-15 -5.296032905038129e-15
-5.692614065906875e-15 -3.042433574309233e-15 9.466813895358741e-15
-2.692607403144381e-16 -3.515396194009678e-15 -6.480094147796643e-14
-5.692614065906875e-15 -3.042433574309233e-15 9.466813895358741e-15
-5.627731658114060e-14 -1.512452883118154e-14 1.125546331622812e-13
-1.261388130267492e-14 0.000000000000000e+00 -1.086734389153531e-13
        </DataArray>
        <DataArray type="Int32" Name="uid_0_pair_beam_id" format="ascii">
267
267
267
268
268
268
269
269
269
270
270
270
271
271
271
272
272
272
273
273
273
274
274
274
        </DataArray>
      </PointData>

    </Piece>
  </UnstructuredGrid>
</VTKFile>
