<?xml version="1.0" ?> 
<!-- 
# vtk DataFile Version 3.0
-->
<VTKFile type="UnstructuredGrid" version="0.1" compressor="vtkZLibDataCompressor" byte_order="LittleEndian">
  <UnstructuredGrid>
    <FieldData>
      <DataArray type="Float64" Name="TIME" NumberOfTuples="1" format="ascii">
3.000000000000000e+00 
      </DataArray>
    </FieldData>

    <Piece NumberOfPoints="60" NumberOfCells="0" >
      <Points>
        <DataArray type="Float64" NumberOfComponents="3" format="ascii">
1.000000000000000e+00 0.000000000000000e+00 -7.079632679490000e-02
7.071067811870000e-01 7.071067811870000e-01 7.146018366030000e-01
9.229551825145283e-01 3.823005540599319e-01 3.219027549043411e-01
7.071067811870000e-01 7.071067811870000e-01 7.146018366030000e-01
0.000000000000000e+00 1.000000000000000e+00 1.500000000000000e+00
3.823005540591954e-01 9.229551825132056e-01 1.107300918301373e+00
1.000000000000000e-01 3.000000000000000e-01 2.500000000000000e+00
1.150000000000000e+00 3.000000000000000e-01 3.050000000000000e+00
6.250000000000000e-01 3.000000000000000e-01 2.775000000000000e+00
1.150000000000000e+00 3.000000000000000e-01 3.050000000000000e+00
2.200000000000000e+00 3.000000000000000e-01 3.600000000000000e+00
1.675000000000000e+00 3.000000000000000e-01 3.325000000000000e+00
1.000000000000000e+00 0.000000000000000e+00 4.929203673210000e+00
7.071067811870000e-01 7.071067811870000e-01 5.714601836600000e+00
9.229551825141720e-01 3.823005540597842e-01 5.321902754905291e+00
7.071067811870000e-01 7.071067811870000e-01 5.714601836600000e+00
0.000000000000000e+00 1.000000000000000e+00 6.500000000000000e+00
3.823005540592515e-01 9.229551825133410e-01 6.107300918299872e+00
1.000000000000000e-01 3.000000000000000e-01 7.500000000000000e+00
1.150000000000000e+00 3.000000000000000e-01 8.050000000000001e+00
6.250000000000000e-01 3.000000000000000e-01 7.775000000000000e+00
1.150000000000000e+00 3.000000000000000e-01 8.050000000000001e+00
2.200000000000000e+00 3.000000000000000e-01 8.600000000000000e+00
1.675000000000000e+00 3.000000000000000e-01 8.324999999999999e+00
1.000000000000000e+00 0.000000000000000e+00 9.929203673210001e+00
7.071067811870000e-01 7.071067811870000e-01 1.071460183660000e+01
9.229551825141720e-01 3.823005540597842e-01 1.032190275490529e+01
7.071067811870000e-01 7.071067811870000e-01 1.071460183660000e+01
0.000000000000000e+00 1.000000000000000e+00 1.150000000000000e+01
3.823005540592515e-01 9.229551825133410e-01 1.110730091829987e+01
1.000000000000000e-01 3.000000000000000e-01 1.250000000000000e+01
1.150000000000000e+00 3.000000000000000e-01 1.305000000000000e+01
6.250000000000000e-01 3.000000000000000e-01 1.277500000000000e+01
1.150000000000000e+00 3.000000000000000e-01 1.305000000000000e+01
2.200000000000000e+00 3.000000000000000e-01 1.360000000000000e+01
1.675000000000000e+00 3.000000000000000e-01 1.332500000000000e+01
1.000000000000000e+00 0.000000000000000e+00 1.492920367320000e+01
7.071067811870000e-01 7.071067811870000e-01 1.571460183660000e+01
9.229551825146231e-01 3.823005540599710e-01 1.532190275490029e+01
7.071067811870000e-01 7.071067811870000e-01 1.571460183660000e+01
0.000000000000000e+00 1.000000000000000e+00 1.650000000000000e+01
3.823005540592515e-01 9.229551825133410e-01 1.610730091829987e+01
1.000000000000000e-01 3.000000000000000e-01 1.750000000000000e+01
1.150000000000000e+00 3.000000000000000e-01 1.805000000000000e+01
6.250000000000000e-01 3.000000000000000e-01 1.777500000000000e+01
1.150000000000000e+00 3.000000000000000e-01 1.805000000000000e+01
2.200000000000000e+00 3.000000000000000e-01 1.860000000000000e+01
1.675000000000000e+00 3.000000000000000e-01 1.832500000000000e+01
1.000000000000000e+00 0.000000000000000e+00 1.992920367320000e+01
7.071067811870000e-01 7.071067811870000e-01 2.071460183660000e+01
9.229551825146229e-01 3.823005540599710e-01 2.032190275490029e+01
7.071067811870000e-01 7.071067811870000e-01 2.071460183660000e+01
0.000000000000000e+00 1.000000000000000e+00 2.150000000000000e+01
3.823005540592515e-01 9.229551825133410e-01 2.110730091829987e+01
1.000000000000000e-01 3.000000000000000e-01 2.250000000000000e+01
1.150000000000000e+00 3.000000000000000e-01 2.305000000000000e+01
6.250000000000000e-01 3.000000000000000e-01 2.277500000000000e+01
1.150000000000000e+00 3.000000000000000e-01 2.305000000000000e+01
2.200000000000000e+00 3.000000000000000e-01 2.360000000000000e+01
1.675000000000000e+00 3.000000000000000e-01 2.332500000000000e+01
        </DataArray>
      </Points>

      <Cells>
        <DataArray type="Int32" Name="connectivity" format="ascii">

        </DataArray>
        <DataArray type="Int32" Name="offsets" format="ascii">

        </DataArray>
        <DataArray type="UInt8" Name="types" format="ascii">

        </DataArray>
      </Cells>

  <PointData>
        <DataArray type="Float64" Name="displacement" NumberOfComponents="3" format="ascii">
3.282806679948145e-01 2.706090852537376e-01 4.074909348015420e-02
-1.531404282810400e-03 7.756542485352713e-02 -6.744620974829418e-03
9.219610956755475e-02 1.760987502427905e-01 4.548172538424433e-04
-1.531404282810400e-03 7.756542485352713e-02 -6.744620974829418e-03
0.000000000000000e+00 0.000000000000000e+00 0.000000000000000e+00
-2.088341110260850e-02 9.565873928112478e-03 -7.360320801049980e-03
0.000000000000000e+00 0.000000000000000e+00 0.000000000000000e+00
-7.790880589206783e-02 2.594081436903520e-01 1.850868867794864e-02
-2.312135486096101e-02 7.062940911449683e-02 7.057749296627502e-03
-7.790880589206783e-02 2.594081436903520e-01 1.850868867794864e-02
-2.658373876623337e-01 8.787509977899590e-01 -3.008255209387478e-02
-1.544628363651057e-01 5.281576515464146e-01 9.088703244738650e-03
4.119715746087949e-01 3.753854152970666e-01 5.038128555517485e-02
1.572029743769232e-02 1.181854818329204e-01 -5.838122888501829e-03
1.329215196519682e-01 2.411022044453317e-01 3.655058748469386e-03
1.572029743769232e-02 1.181854818329204e-01 -5.838122888501829e-03
0.000000000000000e+00 0.000000000000000e+00 0.000000000000000e+00
-1.065413466322890e-02 3.012795075131591e-02 -1.984828369009151e-03
0.000000000000000e+00 0.000000000000000e+00 0.000000000000000e+00
-1.503076804456984e-01 3.793980746713438e-01 4.730083356017900e-02
-4.813552512951946e-02 1.144916879583188e-01 1.803003025049765e-02
-1.503076804456984e-01 3.793980746713438e-01 4.730083356017900e-02
-4.680679182381784e-01 1.151102978634267e+00 -4.753651707897433e-03
-2.883966857028102e-01 7.257363932614922e-01 4.245919317946090e-02
4.152766020603831e-01 3.812278204324592e-01 5.011890794363083e-02
1.658544639857129e-02 1.209435819151020e-01 -6.110604602449499e-03
1.348211949633058e-01 2.452142812849437e-01 3.209747275292330e-03
1.658544639857129e-02 1.209435819151020e-01 -6.110604602449499e-03
0.000000000000000e+00 0.000000000000000e+00 0.000000000000000e+00
-1.054703279965119e-02 3.131395335115772e-02 -2.108509515846180e-03
0.000000000000000e+00 0.000000000000000e+00 0.000000000000000e+00
-1.536579672670235e-01 3.867975551013921e-01 4.713905388113737e-02
-4.945061574943188e-02 1.174042614749152e-01 1.809675689062296e-02
-1.536579672670235e-01 3.867975551013921e-01 4.713905388113737e-02
-4.779336487600583e-01 1.165973617239259e+00 -7.022395682714233e-03
-2.944271248821955e-01 7.367885650183297e-01 4.145661368167630e-02
2.384415422034329e-01 1.680522775158007e-01 3.212745459530630e-02
3.348207863743013e-03 6.989898106718162e-02 -4.718528312483983e-03
6.523178458785994e-02 1.202206556797585e-01 5.372540858139985e-03
3.348207863743013e-03 6.989898106718162e-02 -4.718528312483983e-03
0.000000000000000e+00 0.000000000000000e+00 0.000000000000000e+00
-1.644590898839976e-02 1.295208597509900e-02 -7.268266181483796e-03
0.000000000000000e+00 0.000000000000000e+00 0.000000000000000e+00
-3.722034723882683e-02 1.609867689574124e-01 1.396343284000423e-02
-1.271564295900007e-02 4.467240552457397e-02 5.338768720356768e-03
-3.722034723882683e-02 1.609867689574124e-01 1.396343284000423e-02
-1.204773426034733e-01 5.746960596276158e-01 -7.713575744254797e-03
-6.667695230939463e-02 3.266878033748443e-01 1.231593071047143e-02
4.091240090892287e-01 3.748749118879645e-01 4.918643492159802e-02
1.680703679435358e-02 1.208543314139009e-01 -5.684291251082385e-03
1.331566762159377e-01 2.433454717844164e-01 3.293221581433414e-03
1.680703679435358e-02 1.208543314139009e-01 -5.684291251082385e-03
0.000000000000000e+00 0.000000000000000e+00 0.000000000000000e+00
-1.087746159282188e-02 3.102258520691381e-02 -2.173439290217516e-03
0.000000000000000e+00 0.000000000000000e+00 0.000000000000000e+00
-1.528385714824126e-01 3.847467021992726e-01 4.714136226444410e-02
-4.936366330465392e-02 1.168551584340027e-01 1.805242921542316e-02
-1.528385714824126e-01 3.847467021992726e-01 4.714136226444410e-02
-4.746837806572750e-01 1.159835191194671e+00 -4.079611721049758e-03
-2.925305083438794e-01 7.328400277961085e-01 4.242103292198962e-02
        </DataArray>
        <DataArray type="Float64" Name="lambda" NumberOfComponents="3" format="ascii">
7.669251562851775e-02 2.857237790498705e-02 -2.978555234931985e-03
1.352668187402036e-02 3.288235909175748e-02 2.524784720038008e-03
2.081553219705840e-04 -1.438651804350772e-02 -6.832674227073632e-03
1.352668187402036e-02 3.288235909175748e-02 2.524784720038008e-03
6.449717881135976e-02 1.380926451902793e-01 2.637526570094023e-02
-3.692530833241013e-03 -1.071246273047731e-02 3.489355090199572e-04
-1.247561232405229e-02 -2.406226382388496e-02 -5.771527098549067e-03
-1.196435495234731e-03 -7.659608708958133e-03 -5.272739314522309e-04
2.205291832570925e-03 2.545910341752086e-03 1.142576727492212e-03
-1.196435495234731e-03 -7.659608708958133e-03 -5.272739314522309e-04
-1.728956843465684e-02 1.721838630178773e-02 -8.531868750923556e-03
6.705427027246670e-03 6.310624289677750e-03 3.788238119759074e-03
6.105450351085105e-02 7.255600982421084e-03 4.130085483167810e-03
6.776231151751981e-03 6.700502374138250e-03 -1.280897681882157e-04
2.759246681929672e-03 -5.155123712950203e-03 -6.034639243163826e-03
6.776231151751981e-03 6.700502374138250e-03 -1.280897681882157e-04
7.958740391632283e-03 1.024270106586855e-02 4.164400696012055e-03
-1.361639642433366e-03 -8.907652767047863e-04 2.213620619255201e-05
-2.048209592196270e-03 7.809032898374561e-04 1.033821076848836e-03
1.948218079941073e-03 4.952579091704268e-03 5.021983258404175e-03
2.556868677932028e-03 -3.825748147893067e-03 -6.643630884640920e-04
1.948218079941073e-03 4.952579091704268e-03 5.021983258404175e-03
-1.680015047376428e-02 3.168854341825474e-02 -1.357749884059859e-03
5.412476575251937e-03 3.294253289359070e-03 2.086318214414202e-03
6.019122941043134e-02 6.886271404310735e-03 3.992736089057491e-03
6.043892262149027e-03 6.354432228232968e-03 -1.579040538703546e-04
2.912966492633126e-03 -4.931869074852342e-03 -5.836310824336840e-03
6.043892262149027e-03 6.354432228232968e-03 -1.579040538703546e-04
6.878936264250232e-03 8.667201261378807e-03 3.802855173945091e-03
-8.525412725898096e-04 -8.790341925968754e-04 -1.427105115274122e-04
-1.650966662665279e-03 7.941938687259747e-05 1.298745935752345e-03
1.579962500311238e-03 4.459506324164388e-03 4.842990347461488e-03
2.787905189510219e-03 -3.607207994032564e-03 -5.633654853659503e-04
1.579962500311238e-03 4.459506324164388e-03 4.842990347461488e-03
-1.690816828065487e-02 3.043915171143840e-02 -1.411948421692509e-03
5.404956722724259e-03 3.498362211680024e-03 2.076730928346096e-03
9.078323935870196e-02 2.049941684859615e-02 5.506520832589482e-03
2.552029024252122e-02 2.401483721318656e-02 4.385925998018535e-03
-7.675746775102915e-03 -9.455424112937960e-03 -5.622817417639303e-03
2.552029024252122e-02 2.401483721318656e-02 4.385925998018535e-03
8.540609420835882e-02 1.450250279359162e-01 2.705617121445957e-02
-6.451084392256985e-03 -8.162822499005767e-03 -3.181450355226440e-03
1.161072375480235e-02 -1.342469859859095e-02 -4.523296085738519e-03
1.037036680757234e-03 -9.874831128408039e-04 -1.929579192006677e-03
-4.543658722289296e-04 2.723383272688472e-04 7.697006289183586e-04
1.037036680757234e-03 -9.874831128408039e-04 -1.929579192006677e-03
-1.010752208485080e-02 3.616136730796939e-02 -9.270621124858715e-03
4.022147518010713e-03 1.807850973997708e-03 2.968059185845110e-03
6.233355323369497e-02 6.168622612593251e-03 1.959186190218992e-03
6.540167865696343e-03 6.238728836914178e-03 -8.510515416329411e-04
2.423550038394320e-03 -4.833364058570425e-03 -5.376140162661368e-03
6.540167865696343e-03 6.238728836914178e-03 -8.510515416329411e-04
6.906123901944362e-03 8.879123167585998e-03 3.606423044939964e-03
-8.239668248414336e-04 -7.781030912987437e-04 6.998695317003376e-05
-2.343462903903109e-03 4.881184416065304e-05 -1.809414646007836e-04
1.577689934608174e-03 5.064221653586265e-03 4.587207046954046e-03
2.977232446138019e-03 -3.784765225587286e-03 -3.435625973491042e-04
1.577689934608174e-03 5.064221653586265e-03 4.587207046954046e-03
-1.652228551414916e-02 3.245906627487942e-02 -1.767332469931640e-03
5.377923230143251e-03 3.179502007684279e-03 2.157350530856601e-03
        </DataArray>
        <DataArray type="Int32" Name="uid_0_pair_beam_id" format="ascii">
267
267
267
268
268
268
269
269
269
270
270
270
271
271
271
272
272
272
273
273
273
274
274
274
275
275
275
276
276
276
277
277
277
278
278
278
279
279
279
280
280
280
281
281
281
282
282
282
283
283
283
284
284
284
285
285
285
286
286
286
        </DataArray>
        <DataArray type="Int32" Name="uid_1_pair_solid_id" format="ascii">
0
0
0
4
4
4
9
9
9
11
11
11
17
17
17
21
21
21
26
26
26
28
28
28
34
34
34
38
38
38
43
43
43
45
45
45
58
58
58
51
51
51
99
99
99
99
99
99
166
166
166
159
159
159
207
207
207
207
207
207
        </DataArray>
      </PointData>

    </Piece>
  </UnstructuredGrid>
</VTKFile>
