<?xml version="1.0" ?> 
<!-- 
# vtk DataFile Version 3.0
-->
<VTKFile type="UnstructuredGrid" version="0.1" compressor="vtkZLibDataCompressor" byte_order="LittleEndian">
  <UnstructuredGrid>
    <FieldData>
      <DataArray type="Float64" Name="TIME" NumberOfTuples="1" format="ascii">
1.000000010000000e+00 
      </DataArray>
    </FieldData>

    <Piece NumberOfPoints="432" NumberOfCells="72" >
      <Points>
        <DataArray type="Float64" NumberOfComponents="3" format="ascii">
9.973931072023355e-01 7.070273513256668e-02 1.240327285323417e-16
9.866136483985297e-01 1.604856085446792e-01 9.053228542927601e-02
9.677380497715523e-01 2.489458430537850e-01 1.810742716976267e-01
9.410473093872265e-01 3.354050493183094e-01 2.716221624152881e-01
9.068224253113741e-01 4.191848379966776e-01 3.621721611924967e-01
8.653443956098175e-01 4.996068197473151e-01 4.527204716394890e-01
8.653443956098175e-01 4.996068197473150e-01 4.527204716394889e-01
8.606057705834163e-01 5.077844949056293e-01 4.621765142449014e-01
8.557914246230212e-01 5.159173770345568e-01 4.716324927077273e-01
8.509016777839989e-01 5.240046934520907e-01 4.810884027038981e-01
8.459368501217164e-01 5.320456714762245e-01 4.905442399093451e-01
8.408972616915400e-01 5.400395384249512e-01 4.999999999999998e-01
8.408972616915398e-01 5.400395384249513e-01 5.000000000000001e-01
8.170876849900769e-01 5.757158235670550e-01 5.429253422855892e-01
7.917739045685842e-01 6.103329816742564e-01 5.858486016436822e-01
7.649858644473689e-01 6.438187214866109e-01 6.287693735192811e-01
7.367535086467385e-01 6.761007517441738e-01 6.716872533573868e-01
7.071067811870000e-01 7.071067811870000e-01 7.146018366030000e-01
7.071067811870000e-01 7.071067811870000e-01 7.146018366030000e-01
6.690967767716571e-01 7.430949925337158e-01 7.669700274458292e-01
6.292104186336654e-01 7.769672706542470e-01 8.193429944767485e-01
5.875790665592957e-01 8.086692045435621e-01 8.717200025825732e-01
5.443340803348191e-01 8.381463831966294e-01 9.241003166501178e-01
4.996068197465068e-01 8.653443956084172e-01 9.764832015661981e-01
4.996068197465065e-01 8.653443956084172e-01 9.764832015661981e-01
4.955229120708071e-01 8.676730276519554e-01 9.811865337838427e-01
4.914282091254285e-01 8.699828082651091e-01 9.858898802681229e-01
4.873228059890759e-01 8.722736980649881e-01 9.905932404869610e-01
4.832067977404554e-01 8.745456576687038e-01 9.952966139082793e-01
4.790802794582723e-01 8.767986476933665e-01 1.000000000000000e+00
4.790802794582724e-01 8.767986476933666e-01 1.000000000000000e+00
3.890256016970581e-01 9.201415524530959e-01 1.100009484049564e+00
2.951762298479049e-01 9.545117333401657e-01 1.200019341012199e+00
1.984461689335316e-01 9.795305970780340e-01 1.300024455950053e+00
9.974942397665695e-02 9.948195503901592e-01 1.400019713925271e+00
0.000000000000000e+00 1.000000000000000e+00 1.500000000000000e+00
1.000000000000000e-01 3.000000000000000e-01 2.500000000000000e+00
1.800000000000127e-01 3.000000000000000e-01 2.541904761904731e+00
2.600000000000177e-01 3.000000000000000e-01 2.583809523809476e+00
3.400000000000162e-01 3.000000000000000e-01 2.625714285714233e+00
4.200000000000099e-01 3.000000000000000e-01 2.667619047619000e+00
4.999999999999999e-01 3.000000000000000e-01 2.709523809523774e+00
4.999999999999999e-01 3.000000000000000e-01 2.709523809523774e+00
5.999999999999958e-01 2.999999999999999e-01 2.761904761904752e+00
6.999999999999910e-01 3.000000000000000e-01 2.814285714285731e+00
7.999999999999883e-01 3.000000000000000e-01 2.866666666666708e+00
8.999999999999901e-01 3.000000000000000e-01 2.919047619047674e+00
9.999999999999996e-01 2.999999999999999e-01 2.971428571428627e+00
1.054545454545373e+00 3.000000000000000e-01 3.000000000000000e+00
1.073636363636297e+00 3.000000000000000e-01 3.010000000000002e+00
1.092727272727222e+00 3.000000000000000e-01 3.020000000000003e+00
1.111818181818148e+00 3.000000000000000e-01 3.030000000000003e+00
1.130909090909074e+00 3.000000000000000e-01 3.040000000000002e+00
1.150000000000000e+00 3.000000000000000e-01 3.050000000000000e+00
9.999999999999997e-01 3.000000000000000e-01 2.971428571428627e+00
1.010909090909074e+00 3.000000000000000e-01 2.977142857142902e+00
1.021818181818148e+00 3.000000000000000e-01 2.982857142857177e+00
1.032727272727223e+00 3.000000000000000e-01 2.988571428571452e+00
1.043636363636297e+00 3.000000000000000e-01 2.994285714285726e+00
1.054545454545372e+00 3.000000000000000e-01 3.000000000000000e+00
1.150000000000000e+00 3.000000000000000e-01 3.050000000000000e+00
1.220000000000010e+00 3.000000000000000e-01 3.086666666666638e+00
1.290000000000014e+00 2.999999999999999e-01 3.123333333333286e+00
1.360000000000014e+00 3.000000000000000e-01 3.159999999999946e+00
1.430000000000009e+00 3.000000000000000e-01 3.196666666666613e+00
1.500000000000000e+00 3.000000000000000e-01 3.233333333333286e+00
1.500000000000000e+00 2.999999999999999e-01 3.233333333333286e+00
1.599999999999998e+00 3.000000000000000e-01 3.285714285714262e+00
1.699999999999996e+00 3.000000000000000e-01 3.338095238095244e+00
1.799999999999992e+00 2.999999999999999e-01 3.390476190476222e+00
1.899999999999993e+00 2.999999999999999e-01 3.442857142857195e+00
2.000000000000000e+00 3.000000000000000e-01 3.495238095238156e+00
9.973931072026406e-01 7.070273512785311e-02 4.999999999999998e+00
9.866136483990293e-01 1.604856085406813e-01 5.090532285429302e+00
9.677380497720585e-01 2.489458430506830e-01 5.181074271697498e+00
9.410473093875847e-01 3.354050493162016e-01 5.271622162414896e+00
9.068224253114640e-01 4.191848379955809e-01 5.362172161191801e+00
8.653443956095526e-01 4.996068197471643e-01 5.452720471638520e+00
8.653443956095527e-01 4.996068197471640e-01 5.452720471638521e+00
8.606057705830019e-01 5.077844949057555e-01 5.462176514244125e+00
8.557914246224535e-01 5.159173770349564e-01 5.471632492707142e+00
8.509016777832742e-01 5.240046934527600e-01 5.481088402703508e+00
8.459368501208306e-01 5.320456714771594e-01 5.490544239909150e+00
8.408972616904894e-01 5.400395384261474e-01 5.500000000000001e+00
8.408972616904897e-01 5.400395384261472e-01 5.500000000000000e+00
8.170876849891516e-01 5.757158235680646e-01 5.542925342284897e+00
7.917739045678240e-01 6.103329816750589e-01 5.585848601642335e+00
7.649858644468166e-01 6.438187214871799e-01 5.628769373517327e+00
7.367535086464386e-01 6.761007517444770e-01 5.671687253354878e+00
7.071067811870000e-01 7.071067811870000e-01 5.714601836600000e+00
7.071067811870000e-01 7.071067811870000e-01 5.714601836600000e+00
6.690967767716189e-01 7.430949925337623e-01 5.766970027442925e+00
6.292104186336188e-01 7.769672706543247e-01 5.819342994473974e+00
5.875790665592656e-01 8.086692045436578e-01 5.871720002579959e+00
5.443340803348261e-01 8.381463831967316e-01 5.924100316647686e+00
4.996068197465661e-01 8.653443956085167e-01 5.976483201563967e+00
4.996068197465660e-01 8.653443956085167e-01 5.976483201563966e+00
4.955229120705003e-01 8.676730276522652e-01 5.981186533782058e+00
4.914282091247533e-01 8.699828082656251e-01 5.985889880266784e+00
4.873228059880307e-01 8.722736980657076e-01 5.990593240486068e+00
4.832067977390384e-01 8.745456576696229e-01 5.995296613907834e+00
4.790802794564817e-01 8.767986476944817e-01 6.000000000000001e+00
4.790802794564817e-01 8.767986476944815e-01 6.000000000000001e+00
3.890256016956321e-01 9.201415524538572e-01 6.100009484049631e+00
2.951762298468835e-01 9.545117333406208e-01 6.200019341012337e+00
1.984461689329117e-01 9.795305970782483e-01 6.300024455950227e+00
9.974942397639198e-02 9.948195503902156e-01 6.400019713925410e+00
0.000000000000000e+00 1.000000000000000e+00 6.500000000000000e+00
1.000000000000000e-01 3.000000000000000e-01 7.500000000000000e+00
1.800000000000128e-01 3.000000000000000e-01 7.541904761904729e+00
2.600000000000176e-01 2.999999999999999e-01 7.583809523809474e+00
3.400000000000162e-01 3.000000000000000e-01 7.625714285714233e+00
4.200000000000100e-01 3.000000000000000e-01 7.667619047619000e+00
4.999999999999999e-01 3.000000000000000e-01 7.709523809523774e+00
5.000000000000000e-01 3.000000000000000e-01 7.709523809523774e+00
5.999999999999959e-01 3.000000000000000e-01 7.761904761904751e+00
6.999999999999911e-01 2.999999999999999e-01 7.814285714285733e+00
7.999999999999886e-01 3.000000000000000e-01 7.866666666666709e+00
8.999999999999907e-01 2.999999999999999e-01 7.919047619047674e+00
1.000000000000000e+00 3.000000000000000e-01 7.971428571428629e+00
1.054545454545370e+00 3.000000000000000e-01 7.999999999999999e+00
1.073636363636294e+00 2.999999999999999e-01 8.010000000000000e+00
1.092727272727220e+00 3.000000000000000e-01 8.020000000000001e+00
1.111818181818146e+00 3.000000000000000e-01 8.030000000000003e+00
1.130909090909073e+00 3.000000000000000e-01 8.040000000000003e+00
1.150000000000000e+00 3.000000000000000e-01 8.050000000000001e+00
9.999999999999996e-01 3.000000000000000e-01 7.971428571428627e+00
1.010909090909073e+00 3.000000000000000e-01 7.977142857142903e+00
1.021818181818147e+00 3.000000000000000e-01 7.982857142857179e+00
1.032727272727221e+00 3.000000000000000e-01 7.988571428571451e+00
1.043636363636295e+00 3.000000000000000e-01 7.994285714285724e+00
1.054545454545370e+00 3.000000000000000e-01 7.999999999999999e+00
1.150000000000000e+00 3.000000000000000e-01 8.050000000000001e+00
1.220000000000010e+00 3.000000000000000e-01 8.086666666666639e+00
1.290000000000014e+00 3.000000000000000e-01 8.123333333333287e+00
1.360000000000013e+00 2.999999999999999e-01 8.159999999999945e+00
1.430000000000008e+00 3.000000000000000e-01 8.196666666666616e+00
1.500000000000000e+00 3.000000000000000e-01 8.233333333333286e+00
1.500000000000000e+00 3.000000000000000e-01 8.233333333333286e+00
1.599999999999998e+00 2.999999999999999e-01 8.285714285714262e+00
1.699999999999995e+00 3.000000000000000e-01 8.338095238095244e+00
1.799999999999992e+00 3.000000000000000e-01 8.390476190476223e+00
1.899999999999993e+00 3.000000000000000e-01 8.442857142857196e+00
2.000000000000000e+00 3.000000000000000e-01 8.495238095238156e+00
[...]
  <PointData>
        <DataArray type="Float64" Name="displacement" NumberOfComponents="3" format="ascii">
1.851258585010666e-01 1.705084016784017e-01 7.246847985780981e-03
1.429591679508189e-01 1.609079393666112e-01 1.120617848050107e-03
1.073481770682262e-01 1.483029488585808e-01 -2.772113803237053e-03
7.762883973965451e-02 1.334823031525527e-01 -4.953585859204468e-03
5.313710985147047e-02 1.172348752467690e-01 -5.946037210976418e-03
3.320894129004115e-02 1.003495381394718e-01 -6.271706749676531e-03
3.320894129004126e-02 1.003495381394718e-01 -6.271706749676476e-03
3.136408651675349e-02 9.858126521917931e-02 -6.288391072602206e-03
2.956100504823134e-02 9.681553729188586e-02 -6.304093780888254e-03
2.779894053933130e-02 9.505325287992061e-02 -6.319409701972922e-03
2.607713664490974e-02 9.329531050561268e-02 -6.334933663295128e-03
2.439483701982370e-02 9.154260869129160e-02 -6.351260492293231e-03
2.439483701982381e-02 9.154260869129160e-02 -6.351260492293287e-03
1.723368913173995e-02 8.367637261095318e-02 -6.451779880057851e-03
1.080033394136570e-02 7.602072154256201e-02 -6.636755735941913e-03
5.024008647350753e-03 6.865972022517619e-02 -6.961839446425477e-03
-1.660495516550009e-04 6.167743339785414e-02 -7.482682397987661e-03
-4.840603457002324e-03 5.515792579965428e-02 -8.254935977108135e-03
-4.840603457002324e-03 5.515792579965428e-02 -8.254935977108135e-03
-9.696179494336543e-03 4.750842757241669e-02 -9.179270503267500e-03
-1.347734576955451e-02 3.991653195533496e-02 -9.739135895762918e-03
-1.626129153941025e-02 3.249995860772192e-02 -9.970014242137837e-03
-1.812520606065793e-02 2.537642718888966e-02 -9.907387629935149e-03
-1.914627859005186e-02 1.866365735815123e-02 -9.586738146698082e-03
-1.914627859005164e-02 1.866365735815112e-02 -9.586738146698082e-03
-1.919935202767553e-02 1.808505473417066e-02 -9.546534253379257e-03
-1.924630905369357e-02 1.751079764833863e-02 -9.504562037753628e-03
-1.928720553797886e-02 1.694097130658678e-02 -9.460847181889109e-03
-1.932209735040502e-02 1.637566091484510e-02 -9.415415367853619e-03
-1.935104036084523e-02 1.581495167904423e-02 -9.368292277714851e-03
-1.935104036084528e-02 1.581495167904412e-02 -9.368292277715184e-03
-1.866099250116843e-02 5.138078158370085e-03 -8.013153917588056e-03
-1.584377955379102e-02 -2.600950412298353e-03 -6.151870164156303e-03
-1.143648650016743e-02 -6.583037390534008e-03 -4.031326363016730e-03
-5.976198321752238e-03 -5.989086133909916e-03 -1.898407859765472e-03
0.000000000000000e+00 0.000000000000000e+00 0.000000000000000e+00
0.000000000000000e+00 0.000000000000000e+00 0.000000000000000e+00
-8.999997296474382e-04 1.113034310293359e-03 -2.332345566213867e-04
-2.113395636692272e-03 4.093189387588736e-03 -6.329870312438146e-05
-3.636213845536806e-03 8.904900814078909e-03 4.540657974443363e-04
-5.464480480583289e-03 1.551260417195705e-02 1.263117182042528e-03
-7.594221666233802e-03 2.388073504341615e-02 2.308113687625735e-03
-7.594221666233858e-03 2.388073504341615e-02 2.308113687625735e-03
-1.067429278397880e-02 3.676231965596194e-02 3.861238053851412e-03
-1.421144723064482e-02 5.226954110212573e-02 5.587059535914207e-03
-1.819792353045502e-02 7.033293762837839e-02 7.376707502867230e-03
-2.262596020763241e-02 9.088304748119047e-02 9.121311323765369e-03
-2.748779578640048e-02 1.138504089070329e-01 1.071200036766307e-02
-3.031977125710061e-02 1.273720608476194e-01 1.147584081517694e-02
-3.134067542768548e-02 1.322675773041898e-01 1.172144430388355e-02
-3.237689877772176e-02 1.372467977734170e-01 1.195454840269727e-02
-3.342838730343312e-02 1.423092389455344e-01 1.217439559778333e-02
-3.449508700104209e-02 1.474544175107753e-01 1.238022837530961e-02
-3.557694386677124e-02 1.526818501593732e-01 1.257128922143957e-02
-2.748779578640059e-02 1.138504089070329e-01 1.071200036766262e-02
-2.804409079163794e-02 1.164992187377939e-01 1.087158855898762e-02
-2.860544591783332e-02 1.191758790274811e-01 1.102790804309040e-02
-2.917185108847997e-02 1.218802995958463e-01 1.118081747628175e-02
-2.974329622707095e-02 1.246123902626416e-01 1.133017551487470e-02
-3.031977125710039e-02 1.273720608476192e-01 1.147584081517650e-02
-3.557694386677124e-02 1.526818501593732e-01 1.257128922143957e-02
-3.951696131889415e-02 1.722541404455178e-01 1.314447617600401e-02
-4.338090933504901e-02 1.923892452990248e-01 1.351481827507728e-02
-4.721822333874615e-02 2.131669001696892e-01 1.367613350575780e-02
-5.107833875349277e-02 2.346668405073067e-01 1.362223985514843e-02
-5.501069100279810e-02 2.569688017616722e-01 1.334695531035024e-02
-5.501069100279787e-02 2.569688017616722e-01 1.334695531034980e-02
-6.085165195530129e-02 2.903780832951029e-01 1.255739036059556e-02
-6.708505023770717e-02 3.258193324856065e-01 1.128536754535592e-02
-7.385501244916526e-02 3.635250142013904e-01 9.512863503409186e-03
-8.130566518882709e-02 4.037275933106631e-01 7.221854873533218e-03
-8.958113505584442e-02 4.466595346816319e-01 4.394318294504984e-03
2.902857203495520e-01 2.996057627356837e-01 9.582629987874292e-03
2.308570746020391e-01 2.756087276219341e-01 3.963148615729217e-03
1.798853616490890e-01 2.510435921191855e-01 -4.027453226607136e-04
1.366729850360214e-01 2.260976947617702e-01 -3.651046944350256e-03
1.005223483081582e-01 2.009583740840201e-01 -5.917751366395052e-03
7.073585501081958e-02 1.758129686202680e-01 -7.338853705846304e-03
7.073585501081936e-02 1.758129686202680e-01 -7.338853705847193e-03
6.796394146212581e-02 1.731941690479032e-01 -7.444000333828527e-03
6.525303494941215e-02 1.705775596779957e-01 -7.541562606297347e-03
6.260234091386785e-02 1.679633538881831e-01 -7.631695421000728e-03
6.001106479668161e-02 1.653517650561017e-01 -7.714553675684854e-03
5.747841203904314e-02 1.627430065593890e-01 -7.790292268094134e-03
5.747841203904303e-02 1.627430065593890e-01 -7.790292268092358e-03
4.669626823136797e-02 1.509414319954453e-01 -8.048844445582404e-03
3.703157944647339e-02 1.392225486477053e-01 -8.178351934513550e-03
2.841000765522272e-02 1.276063198880159e-01 -8.193306793878641e-03
2.075721482848036e-02 1.161127090882230e-01 -8.108201082668742e-03
1.399886293711006e-02 1.047616796201734e-01 -7.937526859878474e-03
1.399886293711006e-02 1.047616796201734e-01 -7.937526859878474e-03
7.030561333430718e-03 9.144304609289122e-02 -7.573107104636989e-03
1.500225153460821e-03 7.900369193082424e-02 -7.015171957028166e-03
-2.725015453771462e-03 6.744953698263734e-02 -6.302955706413371e-03
-5.778030339239959e-03 5.678650109699557e-02 -5.475692642145980e-03
-7.791689353916220e-03 4.702050412256387e-02 -4.572617053588246e-03
-7.791689353916054e-03 4.702050412256398e-02 -4.572617053586470e-03
-7.926166248535482e-03 4.618774579613372e-02 -4.489161905605776e-03
-8.053431711004033e-03 4.536227092348233e-02 -4.405440281448847e-03
-8.173581913018035e-03 4.454408378941765e-02 -4.321480579041470e-03
-8.286713026273762e-03 4.373318867874931e-02 -4.237311196310323e-03
-8.392921222467264e-03 4.292958987628537e-02 -4.152960531180305e-03
-8.392921222467209e-03 4.292958987628559e-02 -4.152960531180305e-03
-9.189160257540019e-03 2.757757639895109e-02 -2.368636364841414e-03
-7.823475558199566e-03 1.556742020206181e-02 -7.881849590463119e-04
-5.220379219076032e-03 6.940311756211348e-03 3.154004166967539e-04
-2.304383334799487e-03 1.737441531993178e-03 6.691264928821994e-04
0.000000000000000e+00 0.000000000000000e+00 0.000000000000000e+00
0.000000000000000e+00 0.000000000000000e+00 0.000000000000000e+00
-1.618587913459563e-03 1.845333906478452e-03 9.006766082286788e-06
-4.066642236327189e-03 7.208695285177480e-03 9.018876368882545e-04
-7.293331447973894e-03 1.588126723439137e-02 2.555356001099796e-03
-1.124782402777069e-02 2.765423285241431e-02 4.846125247396138e-03
-1.587928845508857e-02 4.231877523754057e-02 7.650908764456510e-03
-1.587928845508862e-02 4.231877523754063e-02 7.650908764456510e-03
-2.254317200510514e-02 6.439761354899770e-02 1.169190128211461e-02
-3.008611950216233e-02 9.026041863899537e-02 1.610261160491788e-02
-3.840885063253185e-02 1.194993449963890e-01 2.064224557013894e-02
-4.741208508248507e-02 1.517065471100346e-01 2.507000901503975e-02
-5.699654253829323e-02 1.864741794687879e-01 2.914510777688317e-02
-6.243390150888262e-02 2.063716760853235e-01 3.113313091170422e-02
-6.436787088784257e-02 2.134748547863613e-01 3.177999353347261e-02
-6.631674082871775e-02 2.206455415534704e-01 3.239876442203737e-02
-6.827982054639370e-02 2.278808986276136e-01 3.298776814934001e-02
-7.025641925575909e-02 2.351780882497539e-01 3.354532928732823e-02
-7.224584617169971e-02 2.425342726608533e-01 3.406977240794795e-02
-5.699654253829323e-02 1.864741794687876e-01 2.914510777688495e-02
-5.807305887113556e-02 1.904045616950259e-01 2.955808817055683e-02
-5.915518182746449e-02 1.943600319641964e-01 2.996369329718807e-02
-6.024278251443116e-02 1.983400607819012e-01 3.036161054046538e-02
-6.133573203918730e-02 2.023441186537427e-01 3.075152728407371e-02
-6.243390150888262e-02 2.063716760853235e-01 3.113313091170422e-02
-7.224584617169971e-02 2.425342726608533e-01 3.406977240794795e-02
-7.961672387843022e-02 2.701828531808839e-01 3.572786780307702e-02
-8.711693660909470e-02 2.989737614278853e-01 3.697731853870678e-02
-9.477957211215071e-02 3.289068421770618e-01 3.781145343525516e-02
-1.026377181360563e-01 3.599819402036168e-01 3.822360131314184e-02
-1.107244624292691e-01 3.921989002827542e-01 3.820709099279007e-02
-1.107244624292691e-01 3.921989002827542e-01 3.820709099278830e-02
-1.227390989973844e-01 4.402036023445762e-01 3.742668840666852e-02
-1.353842544019221e-01 4.905378657902305e-01 3.573840901573000e-02
-1.487563943818262e-01 5.432012380692910e-01 3.312280331682338e-02
-1.629519846760397e-01 5.981932666313314e-01 2.956042180680640e-02
-1.780674910235058e-01 6.555134989259253e-01 2.503181498253326e-02
2.950628871966120e-01 3.082195814958786e-01 8.976077115084635e-03
2.349377651982106e-01 2.835379836071111e-01 3.303321036941753e-03
1.833624483378272e-01 2.583384456776450e-01 -1.073136199140734e-03
1.396220623344709e-01 2.327952839602308e-01 -4.300522124452755e-03
1.030017329071513e-01 2.070828147076187e-01 -6.526064270289567e-03
7.278658577487773e-02 1.813753541725594e-01 -7.896990167933993e-03
7.278658577487784e-02 1.813753541725594e-01 -7.896990167932216e-03
6.997157407872900e-02 1.786979700750834e-01 -7.996831236990687e-03
6.721780888645223e-02 1.760227403117390e-01 -8.089124937294301e-03
6.452447595988031e-02 1.733498634278512e-01 -8.174038960250485e-03
6.189076106084646e-02 1.706795379687439e-01 -8.251740997270218e-03
5.931584995118300e-02 1.680119624797423e-01 -8.322398739759151e-03
5.931584995118266e-02 1.680119624797418e-01 -8.322398739760928e-03
4.834359474198646e-02 1.559419585842473e-01 -8.559183706248419e-03
3.849026628154795e-02 1.439512962848006e-01 -8.669937862238797e-03
2.967968536228649e-02 1.320585512587713e-01 -8.670350227424350e-03
2.183567277662080e-02 1.202822991835277e-01 -8.576109821486710e-03
1.488204931696946e-02 1.086411157364392e-01 -8.402905664116389e-03
1.488204931696946e-02 1.086411157364392e-01 -8.402905664116389e-03
7.690720183731847e-03 9.496387692535857e-02 -8.032806408801108e-03
1.972513895934891e-03 8.216888140913992e-02 -7.456386876972587e-03
-2.408140886532850e-03 7.026466023366917e-02 -6.715000952494776e-03
-5.586815503783371e-03 5.925974444483317e-02 -5.850002519219188e-03
-7.699081295928001e-03 4.916266508851752e-02 -4.902745461013325e-03
-7.699081295928056e-03 4.916266508851763e-02 -4.902745461013325e-03
-7.841180204139098e-03 4.830079755698102e-02 -4.815080320378584e-03
-7.975873327102978e-03 4.744632346311084e-02 -4.727115359772327e-03
-8.103258791863577e-03 4.659924898170975e-02 -4.638880511281585e-03
-8.223434725465217e-03 4.575958028758109e-02 -4.550405707012928e-03
-8.336499254951835e-03 4.492732355552742e-02 -4.461720879049835e-03
-8.336499254951779e-03 4.492732355552786e-02 -4.461720879055164e-03
-9.237500017699907e-03 2.899680283743289e-02 -2.581253043496545e-03
-7.911041342870295e-03 1.647945086981906e-02 -9.071055712084330e-04
-5.300432361171559e-03 7.434626905699737e-03 2.729800712071295e-04
-2.348982203311922e-03 1.921690198088966e-03 6.712624171480996e-04
0.000000000000000e+00 0.000000000000000e+00 0.000000000000000e+00
0.000000000000000e+00 0.000000000000000e+00 0.000000000000000e+00
-1.638440781668776e-03 1.901964673510448e-03 1.581172006837051e-05
-4.123936007327578e-03 7.414066556812704e-03 9.202165310409072e-04
-7.403792370111850e-03 1.631577155024888e-02 2.588656795229127e-03
-1.142531656315710e-02 2.838654555416104e-02 4.896574874949877e-03
-1.613581527959901e-02 4.340585446889106e-02 7.719413132520003e-03
-1.613581527959901e-02 4.340585446889106e-02 7.719413132520003e-03
-2.291253413900207e-02 6.599039791319633e-02 1.178231167842014e-02
-3.058052578426695e-02 9.240671196154521e-02 1.621187505721977e-02
-3.903687360042385e-02 1.222240659505432e-01 2.076482663281709e-02
-4.817866097250323e-02 1.550117292167957e-01 2.519788976910498e-02
-5.790297128553534e-02 1.903389710969079e-01 2.926778782997985e-02
-6.341586110401598e-02 2.105247362445515e-01 3.124766063696605e-02
-6.537599285042006e-02 2.177250474029923e-01 3.189068353268532e-02
-6.735084241686162e-02 2.249906583991864e-01 3.250507489410914e-02
-6.933969371711202e-02 2.323185722408928e-01 3.308914202032298e-02
-7.134183066494093e-02 2.397057919358692e-01 3.364119221039807e-02
-7.335653717411983e-02 2.471493204918740e-01 3.415953276341455e-02
-5.790297128553579e-02 1.903389710969079e-01 2.926778782997985e-02
-5.899466828096345e-02 1.943281668817141e-01 2.967946006344846e-02
-6.009193937428281e-02 1.983419004944308e-01 3.008359930012361e-02
-6.119465095173560e-02 2.023796127295086e-01 3.047988970076076e-02
-6.230266939956552e-02 2.064407443813980e-01 3.086801542611894e-02
-6.341586110401498e-02 2.105247362445495e-01 3.124766063696782e-02
-7.335653717411983e-02 2.471493204918740e-01 3.415953276341455e-02
-8.082876515485693e-02 2.751227284362805e-01 3.579094620654821e-02
-8.844861236338297e-02 3.042572459219416e-01 3.700747636822221e-02
-9.624910223803451e-02 3.345518373076148e-01 3.780269450616380e-02
-1.042632582171501e-01 3.660054669520581e-01 3.817017187810023e-02
-1.125241037390667e-01 3.986170992140290e-01 3.810347974175343e-02
-1.125241037390667e-01 3.986170992140292e-01 3.810347974175521e-02
-1.248187116742729e-01 4.472118721870689e-01 3.724230904500381e-02
-1.377804406740111e-01 4.981647828923476e-01 3.546321555623067e-02
-1.515055689841629e-01 5.514728119676423e-01 3.274745658658595e-02
-1.660903748506102e-01 6.071329400507317e-01 2.907628944721630e-02
-1.816311365192347e-01 6.651421477793930e-01 2.443097144927719e-02
3.252033736057125e-02 7.110400042675818e-02 1.731536427460156e-03
2.750732966201208e-02 6.813966345706896e-02 1.189215541002042e-03
2.305101300896850e-02 6.512982698561715e-02 6.683078210087956e-04
1.906352462195615e-02 6.210348140919175e-02 1.397764772175236e-04
1.545700172149067e-02 5.908961712458283e-02 -4.254152806399958e-04
1.214358152808703e-02 5.611722452857926e-02 -1.056304242826656e-03
3.010186215255395e-03 4.767495191909998e-02 -3.660312493522611e-03
2.567691494915092e-03 4.729146304654130e-02 -3.824486243873437e-03
2.123577488157946e-03 4.691155090832455e-02 -3.992774384439457e-03
1.677557138938024e-03 4.653531021882995e-02 -4.165271781182867e-03
1.229343391208726e-03 4.616283569243773e-02 -4.342073300048099e-03
7.786491889232305e-04 4.579422204352768e-02 -4.523273806993799e-03
1.214358152808714e-02 5.611722452857926e-02 -1.056304242824879e-03
1.024449331874699e-02 5.435153493220712e-02 -1.482066583230690e-03
8.401058102686543e-03 5.261804585083762e-02 -1.948921287075578e-03
6.593827460013246e-03 5.092317430670634e-02 -2.463295645785735e-03
4.803352970833785e-03 4.927333732204864e-02 -3.031616950792682e-03
3.010186215255395e-03 4.767495191909998e-02 -3.660312493522611e-03
1.120760557538273e-01 9.054619847951939e-02 1.160983104565361e-02
8.958482670504375e-02 8.800253507833528e-02 8.431716443967119e-03
7.083791202886947e-02 8.463659625329373e-02 6.004956865890421e-03
5.538104003776090e-02 8.059826932356812e-02 4.179425126835667e-03
4.275993904417585e-02 7.603744160833181e-02 2.804994042222120e-03
3.252033736057103e-02 7.110400042675813e-02 1.731536427458380e-03
-1.103054446198704e-02 -4.877716779971841e-03 -4.440982070708088e-03
-9.585974202047848e-03 -7.121678062176895e-03 -3.506035565642662e-03
-7.744974939661420e-03 -7.978347994999413e-03 -2.557549430111550e-03
-5.523206361045876e-03 -7.225265608721942e-03 -1.632438340049447e-03
-2.936328152419371e-03 -4.639969933628030e-03 -7.676169713661807e-04
0.000000000000000e+00 0.000000000000000e+00 0.000000000000000e+00
7.786491889232305e-04 4.579422204352768e-02 -4.523273806993799e-03
-1.511514178308859e-03 4.363230671421581e-02 -5.414815968210362e-03
-3.578428701050851e-03 4.108199029966286e-02 -6.145261576982364e-03
-5.426004227339298e-03 3.819881596808172e-02 -6.723827342463906e-03
-7.058150605211533e-03 3.503832688768482e-02 -7.159729973800211e-03
-8.478777682704663e-03 3.165606622668526e-02 -7.462186180134722e-03
-8.478777682704774e-03 3.165606622668493e-02 -7.462186180134722e-03
-9.595338501768857e-03 2.841852235817244e-02 -7.629713817241424e-03
-1.054151370862244e-02 2.508455103948670e-02 -7.700533814938737e-03
-1.132028694952070e-02 2.169653784783276e-02 -7.681679541130748e-03
-1.193464187071874e-02 1.829686836041611e-02 -7.580184363739306e-03
-1.238756211847175e-02 1.492792815444188e-02 -7.403081650675603e-03
-1.238756211847175e-02 1.492792815444188e-02 -7.403081650675603e-03
-1.276724698234799e-02 1.010471991891126e-02 -7.018744631299256e-03
-1.281181464662984e-02 5.576557566828733e-03 -6.507799666312764e-03
-1.253083811332517e-02 1.479434839070315e-03 -5.892813253019824e-03
-1.193389038444165e-02 -2.050654523488626e-03 -5.196351888720585e-03
-1.103054446198698e-02 -4.877716779971841e-03 -4.440982070704536e-03
-6.339376858549683e-03 2.542720116308422e-02 3.283240750977967e-03
-6.882567669635464e-03 2.845498446970929e-02 3.646203288681704e-03
-7.443308577118279e-03 3.164340339509325e-02 4.016610512326935e-03
-8.021623438191128e-03 3.499101084358336e-02 4.392611976541616e-03
-8.617536110047896e-03 3.849635971952614e-02 4.772357235950153e-03
-9.231070449882361e-03 4.215800292726885e-02 5.153995845187609e-03
-3.280508023781548e-03 9.964969122778611e-03 1.261455415111357e-03
-3.835301319074058e-03 1.250955752190097e-02 1.612241484188814e-03
-4.418535014570568e-03 1.533109778389952e-02 1.993678473592553e-03
-5.030258945897814e-03 1.842656705036744e-02 2.401900962055947e-03
-5.670522948682089e-03 2.179294246289792e-02 2.833043528280399e-03
-6.339376858549794e-03 2.542720116308428e-02 3.283240750970862e-03
0.000000000000000e+00 0.000000000000000e+00 0.000000000000000e+00
-5.271830386502363e-04 6.486502084068202e-04 1.399540313329339e-05
-1.118652809257076e-03 1.979938583407670e-03 1.605222982341559e-04
-1.774581862916957e-03 3.983398766483015e-03 4.261970332883891e-04
-2.495142750726320e-03 6.648564399113099e-03 7.976359562533730e-04
-3.280508023781603e-03 9.964969122778611e-03 1.261455415111357e-03
-1.402620643959596e-02 7.207616457963523e-02 7.725292095205560e-03
-1.445260461105380e-02 7.481605816017428e-02 7.914249013992958e-03
-1.488473975478821e-02 7.760225856255903e-02 8.098709250681679e-03
-1.532261622646569e-02 8.043450158697413e-02 8.278334964899159e-03
-1.576623838175295e-02 8.331252303360442e-02 8.452788316283488e-03
-1.621561057631649e-02 8.623605870263434e-02 8.621731464469207e-03
-9.231070449882361e-03 4.215800292726890e-02 5.153995845187609e-03
-1.012053255103085e-02 4.754940427824328e-02 5.688455257327973e-03
-1.104471154891251e-02 5.324090332404957e-02 6.217906755562552e-03
-1.200367309519124e-02 5.922851785960531e-02 6.737258172726968e-03
-1.299748284153091e-02 6.550826567982787e-02 7.241417341656842e-03
-1.402620643959596e-02 7.207616457963506e-02 7.725292095209113e-03
-1.967506458590917e-02 1.115024940522522e-01 9.701854314410951e-03
-2.073965799309541e-02 1.204499146949502e-01 9.922043371879852e-03