<?xml version="1.0" ?> 
<!-- 
# vtk DataFile Version 3.0
-->
<VTKFile type="UnstructuredGrid" version="0.1" compressor="vtkZLibDataCompressor" byte_order="LittleEndian">
  <UnstructuredGrid>
    <FieldData>
      <DataArray type="Float64" Name="TIME" NumberOfTuples="1" format="ascii">
1.000000010000000e+00 
      </DataArray>
    </FieldData>

    <Piece NumberOfPoints="60" NumberOfCells="0" >
      <Points>
        <DataArray type="Float64" NumberOfComponents="3" format="ascii">
1.000000000000000e+00 0.000000000000000e+00 -7.079632679490000e-02
7.071067811870000e-01 7.071067811870000e-01 7.146018366030000e-01
9.229551825145287e-01 3.823005540599320e-01 3.219027549043411e-01
7.071067811870000e-01 7.071067811870000e-01 7.146018366030000e-01
0.000000000000000e+00 1.000000000000000e+00 1.500000000000000e+00
3.823005540591956e-01 9.229551825132061e-01 1.107300918301373e+00
1.000000000000000e-01 3.000000000000000e-01 2.500000000000000e+00
1.150000000000000e+00 3.000000000000000e-01 3.050000000000000e+00
6.250000000000000e-01 3.000000000000000e-01 2.775000000000000e+00
1.150000000000000e+00 3.000000000000000e-01 3.050000000000000e+00
2.200000000000000e+00 3.000000000000000e-01 3.600000000000000e+00
1.675000000000000e+00 3.000000000000000e-01 3.325000000000000e+00
1.000000000000000e+00 0.000000000000000e+00 4.929203673210000e+00
7.071067811870000e-01 7.071067811870000e-01 5.714601836600000e+00
9.229551825141724e-01 3.823005540597845e-01 5.321902754905291e+00
7.071067811870000e-01 7.071067811870000e-01 5.714601836600000e+00
0.000000000000000e+00 1.000000000000000e+00 6.500000000000000e+00
3.823005540592516e-01 9.229551825133414e-01 6.107300918299874e+00
1.000000000000000e-01 3.000000000000000e-01 7.500000000000000e+00
1.150000000000000e+00 3.000000000000000e-01 8.050000000000001e+00
6.249999999999999e-01 3.000000000000000e-01 7.775000000000000e+00
1.150000000000000e+00 3.000000000000000e-01 8.050000000000001e+00
2.200000000000000e+00 3.000000000000000e-01 8.600000000000000e+00
1.675000000000000e+00 3.000000000000000e-01 8.324999999999999e+00
1.000000000000000e+00 0.000000000000000e+00 9.929203673210001e+00
7.071067811870000e-01 7.071067811870000e-01 1.071460183660000e+01
9.229551825141724e-01 3.823005540597844e-01 1.032190275490529e+01
7.071067811870000e-01 7.071067811870000e-01 1.071460183660000e+01
0.000000000000000e+00 1.000000000000000e+00 1.150000000000000e+01
3.823005540592517e-01 9.229551825133414e-01 1.110730091829987e+01
1.000000000000000e-01 3.000000000000000e-01 1.250000000000000e+01
1.150000000000000e+00 3.000000000000000e-01 1.305000000000000e+01
6.249999999999999e-01 3.000000000000000e-01 1.277500000000000e+01
1.150000000000000e+00 3.000000000000000e-01 1.305000000000000e+01
2.200000000000000e+00 3.000000000000000e-01 1.360000000000000e+01
1.675000000000000e+00 3.000000000000000e-01 1.332500000000000e+01
1.000000000000000e+00 0.000000000000000e+00 1.492920367320000e+01
7.071067811870000e-01 7.071067811870000e-01 1.571460183660000e+01
9.229551825146234e-01 3.823005540599712e-01 1.532190275490029e+01
7.071067811870000e-01 7.071067811870000e-01 1.571460183660000e+01
0.000000000000000e+00 1.000000000000000e+00 1.650000000000000e+01
3.823005540592517e-01 9.229551825133414e-01 1.610730091829987e+01
1.000000000000000e-01 3.000000000000000e-01 1.750000000000000e+01
1.150000000000000e+00 3.000000000000000e-01 1.805000000000000e+01
6.249999999999999e-01 3.000000000000000e-01 1.777500000000000e+01
1.150000000000000e+00 3.000000000000000e-01 1.805000000000000e+01
2.200000000000000e+00 3.000000000000000e-01 1.860000000000000e+01
1.675000000000000e+00 3.000000000000000e-01 1.832500000000000e+01
1.000000000000000e+00 0.000000000000000e+00 1.992920367320000e+01
7.071067811870000e-01 7.071067811870000e-01 2.071460183660000e+01
9.229551825146234e-01 3.823005540599712e-01 2.032190275490029e+01
7.071067811870000e-01 7.071067811870000e-01 2.071460183660000e+01
0.000000000000000e+00 1.000000000000000e+00 2.150000000000000e+01
3.823005540592516e-01 9.229551825133414e-01 2.110730091829987e+01
1.000000000000000e-01 3.000000000000000e-01 2.250000000000000e+01
1.150000000000000e+00 3.000000000000000e-01 2.305000000000000e+01
6.250000000000000e-01 3.000000000000000e-01 2.277500000000000e+01
1.150000000000000e+00 3.000000000000000e-01 2.305000000000000e+01
2.200000000000000e+00 3.000000000000000e-01 2.360000000000000e+01
1.675000000000000e+00 3.000000000000000e-01 2.332500000000000e+01
        </DataArray>
      </Points>

      <Cells>
        <DataArray type="Int32" Name="connectivity" format="ascii">
0 1 2 3 4 5 6 7 8 9 10 11 12 13 14 15 16 17 18 19 20 21 22 23 24 25 26 27 28 29 30 31 32 33 34 35 36 37 38 39 40 41 42 43 44 45 46 47 48 49 50 51 52 53 54 55 56 57 58 59 
        </DataArray>
        <DataArray type="Int32" Name="offsets" format="ascii">

        </DataArray>
        <DataArray type="UInt8" Name="types" format="ascii">

        </DataArray>
      </Cells>

  <PointData>
        <DataArray type="Float64" Name="displacement" NumberOfComponents="3" format="ascii">
2.231023217267984e-01 1.754132821461044e-01 1.393221039217045e-02
-4.840603457002324e-03 5.515792579965428e-02 -8.254935977108135e-03
6.342611317659841e-02 1.245861012468716e-01 -5.618056005213701e-03
-4.840603457002324e-03 5.515792579965428e-02 -8.254935977108135e-03
0.000000000000000e+00 0.000000000000000e+00 0.000000000000000e+00
-1.852099632160931e-02 4.464665019121239e-03 -7.891575451175026e-03
0.000000000000000e+00 0.000000000000000e+00 0.000000000000000e+00
-3.557694386677124e-02 1.526818501593732e-01 1.257128922143957e-02
-1.151603301620685e-02 4.039568491409923e-02 4.280755828779181e-03
-3.557694386677124e-02 1.526818501593732e-01 1.257128922143957e-02
-1.091830325685437e-01 5.416413636814696e-01 -2.942432155891517e-03
-6.548202774403644e-02 3.167558102976514e-01 1.164958932662197e-02
3.431094445674867e-01 3.178569295744194e-01 1.493914880754499e-02
1.399886293711006e-02 1.047616796201734e-01 -7.937526859878474e-03
1.157719833452469e-01 2.121502215956308e-01 -5.022197350431412e-03
1.399886293711006e-02 1.047616796201734e-01 -7.937526859878474e-03
0.000000000000000e+00 0.000000000000000e+00 0.000000000000000e+00
-9.151482204265815e-03 2.658851791839467e-02 -2.243221375294979e-03
0.000000000000000e+00 0.000000000000000e+00 0.000000000000000e+00
-7.224584617169971e-02 2.425342726608533e-01 3.406977240794795e-02
-2.435037477158974e-02 7.052449940128935e-02 1.276932384056373e-02
-7.224584617169971e-02 2.425342726608533e-01 3.406977240794795e-02
-2.114441148339645e-01 7.771367645110430e-01 1.299812737862460e-02
-1.321585789397752e-01 4.777359282979362e-01 3.624665595862098e-02
3.485072157352305e-01 3.270495191191310e-01 1.441128677677384e-02
1.488204931696946e-02 1.086411157364392e-01 -8.402905664116389e-03
1.184541551409117e-01 2.185274087590554e-01 -5.650596825301335e-03
1.488204931696946e-02 1.086411157364392e-01 -8.402905664116389e-03
0.000000000000000e+00 0.000000000000000e+00 0.000000000000000e+00
-9.204669433311941e-03 2.796813679101851e-02 -2.448746013593350e-03
0.000000000000000e+00 0.000000000000000e+00 0.000000000000000e+00
-7.335653717411983e-02 2.471493204918740e-01 3.415953276341455e-02
-2.474999540691625e-02 7.225207334769457e-02 1.286483068863475e-02
-7.335653717411983e-02 2.471493204918740e-01 3.415953276341455e-02
-2.159656402465349e-01 7.881957247245146e-01 1.214291212230556e-02
-1.344722006077053e-01 4.852056449250040e-01 3.599506918097539e-02
1.385458160277504e-01 9.210978856266007e-02 1.565460918087780e-02
7.786491889232305e-04 4.579422204352768e-02 -4.523273806993799e-03
3.697699688749978e-02 7.341658407241997e-02 2.198902398221847e-03
7.786491889232305e-04 4.579422204352768e-02 -4.523273806993799e-03
0.000000000000000e+00 0.000000000000000e+00 0.000000000000000e+00
-1.282252822587177e-02 6.030588209668175e-03 -6.566280617377629e-03
0.000000000000000e+00 0.000000000000000e+00 0.000000000000000e+00
-1.621561057631649e-02 8.623605870263434e-02 8.621731464469207e-03
-6.017185352709120e-03 2.366272663608021e-02 3.066648192930899e-03
-1.621561057631649e-02 8.623605870263434e-02 8.621731464469207e-03
-4.366350841480982e-02 3.156347342350448e-01 3.923991279823014e-03
-2.660285999470746e-02 1.758649554543550e-01 9.757110994129903e-03
3.423113887379035e-01 3.208499823601751e-01 1.426825509262386e-02
1.478046055905247e-02 1.086888673098589e-01 -8.166506008702612e-03
1.168056241240751e-01 2.169498044949457e-01 -5.486138694816844e-03
1.478046055905247e-02 1.086888673098589e-01 -8.166506008702612e-03
0.000000000000000e+00 0.000000000000000e+00 0.000000000000000e+00
-9.558786072771996e-03 2.784904994831261e-02 -2.521855756850044e-03
0.000000000000000e+00 0.000000000000000e+00 0.000000000000000e+00
-7.272754255649816e-02 2.443314106243333e-01 3.418745800706091e-02
-2.461301217897049e-02 7.135058591558019e-02 1.283141132655885e-02
-7.272754255649816e-02 2.443314106243333e-01 3.418745800706091e-02
-2.134494147986514e-01 7.803454191592636e-01 1.447557180564374e-02
-1.331177514402404e-01 4.801716060740304e-01 3.679532492165549e-02
        </DataArray>
        <DataArray type="Float64" Name="lambda" NumberOfComponents="3" format="ascii">
4.753247640789247e-02 2.514061952893497e-02 -5.654311494206469e-03
1.262022163082742e-02 3.057533436917036e-02 1.152310428404711e-03
-1.039337242185896e-03 -1.267489420051606e-02 -4.506125441607904e-03
1.262022163082742e-02 3.057533436917036e-02 1.152310428404711e-03
6.470719873726548e-02 1.401119667534884e-01 2.491977478059213e-02
-3.312208301251846e-03 -1.019894691038009e-02 6.419764970661427e-04
-6.775510743517077e-03 -1.141129212522184e-02 -3.369007393900013e-03
-5.640849729334621e-04 -3.554322891248695e-03 -4.126332382743699e-04
1.028773782357054e-03 1.356652092226134e-03 6.442240710393538e-04
-5.640849729334621e-04 -3.554322891248695e-03 -4.126332382743699e-04
-1.090123248742396e-02 1.143039979862759e-02 -5.281258858454126e-03
4.169140478586494e-03 2.566831722506765e-03 2.240501052043182e-03
3.339675610571655e-02 7.262323154980128e-03 4.945641191393985e-03
4.546725661149871e-03 5.208638839758539e-03 -7.683137645098880e-04
2.361109799798939e-03 -4.400045586161278e-03 -4.977254438066959e-03
4.546725661149871e-03 5.208638839758539e-03 -7.683137645098880e-04
5.081645099236058e-03 9.317518486557725e-03 3.190874614608893e-03
-8.723263751861339e-04 -5.221928330480050e-04 7.886058147864921e-05
-2.047512980505662e-03 1.286172050742332e-03 -2.765645254018125e-04
2.463037310859128e-03 2.546345513945844e-03 3.552041484544004e-03
1.830321586862032e-03 -1.915398224548678e-03 9.848267356555439e-05
2.463037310859128e-03 2.546345513945844e-03 3.552041484544004e-03
-1.716778651436608e-02 1.403635453825515e-02 -8.046815303167421e-03
2.939851829703382e-03 1.368875649046667e-03 7.127390160026252e-04
3.282659095380560e-02 7.286030439604286e-03 5.247634936620032e-03
4.026388878215473e-03 4.983329296160780e-03 -6.859537269925302e-04
2.484605881168635e-03 -4.271630403311579e-03 -4.917420254412141e-03
4.026388878215473e-03 4.983329296160780e-03 -6.859537269925302e-04
4.501117375378132e-03 8.061465240953927e-03 3.084634270456943e-03
-4.881336769391166e-04 -5.450715482501904e-04 -1.297096206682181e-04
-1.591451965203233e-03 8.377929386218972e-04 2.355139781617762e-05
2.362922384839514e-03 2.285015862562497e-03 3.550829688644136e-03
1.932873941631884e-03 -1.805105774504467e-03 1.209186298778164e-04
2.362922384839514e-03 2.285015862562497e-03 3.550829688644136e-03
-1.630714310023250e-02 1.370873635805106e-02 -7.227776650770538e-03
2.816723147022611e-03 1.452111840855631e-03 6.079888526395049e-04
5.007420472777561e-02 1.305233258779484e-02 -2.161042379069880e-03
1.537937016776162e-02 2.094948087055836e-02 1.786543225010144e-03
-4.554388782294392e-03 -6.725561174176210e-03 -2.479869167829113e-03
1.537937016776162e-02 2.094948087055836e-02 1.786543225010144e-03
7.231228301120285e-02 1.501461463063389e-01 2.059789480842068e-02
-2.524440487342882e-03 -7.528964299142690e-03 -2.044368747004320e-03
7.327599386181364e-03 -5.930362743106349e-03 -2.019404160583342e-03
1.291226338638755e-03 3.620012393605295e-04 -6.866350890094316e-04
-6.894732494192272e-04 -5.993321777659199e-05 2.127966898746057e-04
1.291226338638755e-03 3.620012393605295e-04 -6.866350890094316e-04
-1.475991643835418e-03 2.193261698804076e-02 -2.936762917124774e-03
1.797167159629488e-03 2.270616011521428e-04 1.367393326734806e-03
3.341142019500686e-02 6.645753219521302e-03 4.172035404784058e-03
4.175385427829628e-03 4.825836762965349e-03 -1.231869116392491e-03
2.342417126708976e-03 -4.174199487585187e-03 -4.656289949711534e-03
4.175385427829628e-03 4.825836762965349e-03 -1.231869116392491e-03
4.356535639083968e-03 8.276607862771181e-03 3.062103340245969e-03
-3.474045377896600e-04 -4.322899558189754e-04 3.442451807503168e-05
-2.065815535101496e-03 8.124103343136869e-04 -8.048789800865230e-04
2.303570698871880e-03 2.542482279056442e-03 3.338445911838280e-03
2.024636820558958e-03 -1.911137970732993e-03 2.384212620307303e-04
2.303570698871880e-03 2.542482279056442e-03 3.338445911838280e-03
-1.727618252529277e-02 1.412103713889750e-02 -8.493436519993784e-03
2.907871621263397e-03 1.344871249607478e-03 7.530064664724116e-04
        </DataArray>
        <DataArray type="Float64" Name="uid_0_pair_beam_id" format="ascii">
2.670000000000000e+02
2.670000000000000e+02
2.670000000000000e+02
2.680000000000000e+02
2.680000000000000e+02
2.680000000000000e+02
2.690000000000000e+02
2.690000000000000e+02
2.690000000000000e+02
2.700000000000000e+02
2.700000000000000e+02
2.700000000000000e+02
2.710000000000000e+02
2.710000000000000e+02
2.710000000000000e+02
2.720000000000000e+02
2.720000000000000e+02
2.720000000000000e+02
2.730000000000000e+02
2.730000000000000e+02
2.730000000000000e+02
2.740000000000000e+02
2.740000000000000e+02
2.740000000000000e+02
2.750000000000000e+02
2.750000000000000e+02
2.750000000000000e+02
2.760000000000000e+02
2.760000000000000e+02
2.760000000000000e+02
2.770000000000000e+02
2.770000000000000e+02
2.770000000000000e+02
2.780000000000000e+02
2.780000000000000e+02
2.780000000000000e+02
2.790000000000000e+02
2.790000000000000e+02
2.790000000000000e+02
2.800000000000000e+02
2.800000000000000e+02
2.800000000000000e+02
2.810000000000000e+02
2.810000000000000e+02
2.810000000000000e+02
2.820000000000000e+02
2.820000000000000e+02
2.820000000000000e+02
2.830000000000000e+02
2.830000000000000e+02
2.830000000000000e+02
2.840000000000000e+02
2.840000000000000e+02
2.840000000000000e+02
2.850000000000000e+02
2.850000000000000e+02
2.850000000000000e+02
2.860000000000000e+02
2.860000000000000e+02
2.860000000000000e+02
        </DataArray>
        <DataArray type="Float64" Name="uid_1_pair_solid_id" format="ascii">
0.000000000000000e+00
0.000000000000000e+00
0.000000000000000e+00
0.000000000000000e+00
0.000000000000000e+00
0.000000000000000e+00
9.000000000000000e+00
9.000000000000000e+00
9.000000000000000e+00
9.000000000000000e+00
9.000000000000000e+00
9.000000000000000e+00
1.700000000000000e+01
1.700000000000000e+01
1.700000000000000e+01
1.700000000000000e+01
1.700000000000000e+01
1.700000000000000e+01
2.600000000000000e+01
2.600000000000000e+01
2.600000000000000e+01
2.600000000000000e+01
2.600000000000000e+01
2.600000000000000e+01
3.400000000000000e+01
3.400000000000000e+01
3.400000000000000e+01
3.400000000000000e+01
3.400000000000000e+01
3.400000000000000e+01
4.300000000000000e+01
4.300000000000000e+01
4.300000000000000e+01
4.300000000000000e+01
4.300000000000000e+01
4.300000000000000e+01
5.100000000000000e+01
5.100000000000000e+01
5.100000000000000e+01
5.100000000000000e+01
5.100000000000000e+01
5.100000000000000e+01
9.900000000000000e+01
9.900000000000000e+01
9.900000000000000e+01
9.900000000000000e+01
9.900000000000000e+01
9.900000000000000e+01
1.590000000000000e+02
1.590000000000000e+02
1.590000000000000e+02
1.590000000000000e+02
1.590000000000000e+02
1.590000000000000e+02
2.070000000000000e+02
2.070000000000000e+02
2.070000000000000e+02
2.070000000000000e+02
2.070000000000000e+02
2.070000000000000e+02
        </DataArray>
      </PointData>

    </Piece>
  </UnstructuredGrid>
</VTKFile>
