<?xml version="1.0" ?> 
<!-- 
# vtk DataFile Version 3.0
-->
<VTKFile type="UnstructuredGrid" version="0.1" compressor="vtkZLibDataCompressor" byte_order="LittleEndian">
  <UnstructuredGrid>
    <FieldData>
      <DataArray type="Float64" Name="TIME" NumberOfTuples="1" format="ascii">
3.000000000000000e+00 
      </DataArray>
    </FieldData>

    <Piece NumberOfPoints="144" NumberOfCells="0" >
      <Points>
        <DataArray type="Float64" NumberOfComponents="3" format="ascii">
9.973931072023355e-01 7.070273513256668e-02 1.240327285323417e-16
8.653443956098175e-01 4.996068197473151e-01 4.527204716394890e-01
8.653443956098175e-01 4.996068197473150e-01 4.527204716394889e-01
8.408972616915400e-01 5.400395384249512e-01 4.999999999999998e-01
8.408972616915398e-01 5.400395384249513e-01 5.000000000000001e-01
7.071067811870000e-01 7.071067811870000e-01 7.146018366030000e-01
7.071067811870000e-01 7.071067811870000e-01 7.146018366030000e-01
4.996068197465068e-01 8.653443956084172e-01 9.764832015661981e-01
4.996068197465065e-01 8.653443956084172e-01 9.764832015661981e-01
4.790802794582723e-01 8.767986476933665e-01 1.000000000000000e+00
4.790802794582724e-01 8.767986476933666e-01 1.000000000000000e+00
0.000000000000000e+00 1.000000000000000e+00 1.500000000000000e+00
1.000000000000000e-01 3.000000000000000e-01 2.500000000000000e+00
4.999999999999999e-01 3.000000000000000e-01 2.709523809523774e+00
4.999999999999999e-01 3.000000000000000e-01 2.709523809523774e+00
9.999999999999997e-01 3.000000000000000e-01 2.971428571428627e+00
1.054545454545373e+00 3.000000000000000e-01 3.000000000000000e+00
1.150000000000000e+00 3.000000000000000e-01 3.050000000000000e+00
9.999999999999997e-01 3.000000000000000e-01 2.971428571428627e+00
1.054545454545372e+00 3.000000000000000e-01 3.000000000000000e+00
1.150000000000000e+00 3.000000000000000e-01 3.050000000000000e+00
1.500000000000000e+00 3.000000000000000e-01 3.233333333333286e+00
1.500000000000000e+00 2.999999999999999e-01 3.233333333333286e+00
2.000000000000000e+00 3.000000000000000e-01 3.495238095238156e+00
9.973931072026406e-01 7.070273512785311e-02 4.999999999999998e+00
8.653443956095526e-01 4.996068197471643e-01 5.452720471638520e+00
8.653443956095527e-01 4.996068197471640e-01 5.452720471638521e+00
8.408972616904894e-01 5.400395384261474e-01 5.500000000000001e+00
8.408972616904897e-01 5.400395384261472e-01 5.500000000000000e+00
7.071067811870000e-01 7.071067811870000e-01 5.714601836600000e+00
7.071067811870000e-01 7.071067811870000e-01 5.714601836600000e+00
4.996068197465661e-01 8.653443956085167e-01 5.976483201563966e+00
4.996068197465660e-01 8.653443956085167e-01 5.976483201563966e+00
4.790802794564817e-01 8.767986476944817e-01 6.000000000000001e+00
4.790802794564817e-01 8.767986476944815e-01 6.000000000000001e+00
0.000000000000000e+00 1.000000000000000e+00 6.500000000000000e+00
1.000000000000000e-01 3.000000000000000e-01 7.500000000000000e+00
4.999999999999999e-01 3.000000000000000e-01 7.709523809523774e+00
5.000000000000000e-01 3.000000000000000e-01 7.709523809523774e+00
1.000000000000000e+00 3.000000000000000e-01 7.971428571428627e+00
1.054545454545370e+00 3.000000000000000e-01 7.999999999999999e+00
1.150000000000000e+00 3.000000000000000e-01 8.050000000000001e+00
9.999999999999996e-01 3.000000000000000e-01 7.971428571428627e+00
1.054545454545370e+00 3.000000000000000e-01 7.999999999999999e+00
1.150000000000000e+00 3.000000000000000e-01 8.050000000000001e+00
1.500000000000000e+00 3.000000000000000e-01 8.233333333333286e+00
1.500000000000000e+00 3.000000000000000e-01 8.233333333333286e+00
2.000000000000000e+00 3.000000000000000e-01 8.495238095238156e+00
9.973931072026406e-01 7.070273512785397e-02 1.000000000000000e+01
8.653443956095526e-01 4.996068197471642e-01 1.045272047163852e+01
8.653443956095525e-01 4.996068197471640e-01 1.045272047163852e+01
8.408972616904911e-01 5.400395384261447e-01 1.050000000000000e+01
8.408972616904904e-01 5.400395384261458e-01 1.050000000000000e+01
7.071067811870000e-01 7.071067811870000e-01 1.071460183660000e+01
7.071067811870000e-01 7.071067811870000e-01 1.071460183660000e+01
4.996068197465661e-01 8.653443956085167e-01 1.097648320156397e+01
4.996068197465660e-01 8.653443956085166e-01 1.097648320156397e+01
4.790802794564824e-01 8.767986476944813e-01 1.100000000000000e+01
4.790802794564840e-01 8.767986476944802e-01 1.100000000000000e+01
0.000000000000000e+00 1.000000000000000e+00 1.150000000000000e+01
1.000000000000000e-01 3.000000000000000e-01 1.250000000000000e+01
4.999999999999999e-01 3.000000000000000e-01 1.270952380952378e+01
4.999999999999999e-01 3.000000000000000e-01 1.270952380952378e+01
9.999999999999999e-01 3.000000000000000e-01 1.297142857142863e+01
1.054545454545370e+00 3.000000000000000e-01 1.300000000000000e+01
1.150000000000000e+00 3.000000000000000e-01 1.305000000000000e+01
1.000000000000000e+00 3.000000000000000e-01 1.297142857142863e+01
1.054545454545363e+00 2.999999999999999e-01 1.299999999999999e+01
1.150000000000000e+00 3.000000000000000e-01 1.305000000000000e+01
1.500000000000000e+00 3.000000000000000e-01 1.323333333333329e+01
1.500000000000000e+00 3.000000000000000e-01 1.323333333333329e+01
2.000000000000000e+00 3.000000000000000e-01 1.349523809523816e+01
9.099418396092167e-01 4.123520859599072e-01 1.535465927548243e+01
8.072131304353306e-01 5.895942770789958e-01 1.555997188189464e+01
7.282911557660177e-01 6.852367478256445e-01 1.568414612346445e+01
7.071067811870000e-01 7.071067811870000e-01 1.571460183660000e+01
8.072131304353315e-01 5.895942770789949e-01 1.555997188189463e+01
7.282911557660178e-01 6.852367478256446e-01 1.568414612346445e+01
9.974188365449633e-01 7.035216465623562e-02 1.499964823725036e+01
9.099418396092164e-01 4.123520859599082e-01 1.535465927548244e+01
2.540680715836868e-01 9.663884211005249e-01 1.624282971409468e+01
0.000000000000000e+00 1.000000000000000e+00 1.650000000000000e+01
7.071067811870000e-01 7.071067811870000e-01 1.571460183660000e+01
5.836739772285683e-01 8.114691146331118e-01 1.587652897058727e+01
5.836739772285665e-01 8.114691146331131e-01 1.587652897058727e+01
4.573928745921861e-01 8.882395524102783e-01 1.602452946266590e+01
4.573928745921863e-01 8.882395524102782e-01 1.602452946266590e+01
2.540680715836858e-01 9.663884211005251e-01 1.624282971409468e+01
6.456898118068776e-01 3.000000000000000e-01 1.778583752047027e+01
8.155693453509683e-01 3.000000000000000e-01 1.787482203804104e+01
4.285291040100551e-01 3.000000000000000e-01 1.767208667352903e+01
6.456898118068786e-01 3.000000000000000e-01 1.778583752047028e+01
1.000000000000000e-01 3.000000000000000e-01 1.750000000000000e+01
4.285291040100564e-01 3.000000000000000e-01 1.767208667352903e+01
1.053627568438921e+00 3.000000000000000e-01 1.799951920251567e+01
1.150000000000000e+00 3.000000000000000e-01 1.805000000000000e+01
8.155693453509688e-01 3.000000000000000e-01 1.787482203804104e+01
1.053627568438920e+00 3.000000000000000e-01 1.799951920251567e+01
1.312800678365587e+00 2.999999999999999e-01 1.813527654581049e+01
1.590794601595392e+00 3.000000000000000e-01 1.828089241035947e+01
1.590794601595394e+00 2.999999999999999e-01 1.828089241035947e+01
1.995978191111754e+00 3.000000000000000e-01 1.849313143343955e+01
1.995978191111753e+00 3.000000000000000e-01 1.849313143343955e+01
2.000000000000000e+00 3.000000000000000e-01 1.849523809523816e+01
1.150000000000000e+00 3.000000000000000e-01 1.805000000000000e+01
1.204849796232627e+00 3.000000000000000e-01 1.807873084564564e+01
1.204849796232627e+00 3.000000000000000e-01 1.807873084564563e+01
1.312800678365586e+00 3.000000000000000e-01 1.813527654581049e+01
9.099650212282833e-01 4.123008091368154e-01 2.035460298935891e+01
8.076108102509388e-01 5.890449378240545e-01 2.055929315811432e+01
7.282912294134957e-01 6.852366693390888e-01 2.068414601579194e+01
7.071067811870000e-01 7.071067811870000e-01 2.071460183660000e+01
8.076108102509387e-01 5.890449378240550e-01 2.055929315811432e+01
7.282912294134957e-01 6.852366693390887e-01 2.068414601579193e+01
9.973931080192998e-01 7.070272402876927e-02 1.999999998885323e+01
9.099650212282825e-01 4.123008091368171e-01 2.035460298935891e+01
2.527815540384724e-01 9.667300861487244e-01 2.124416147965651e+01
0.000000000000000e+00 1.000000000000000e+00 2.150000000000000e+01
7.071067811870000e-01 7.071067811870000e-01 2.071460183660000e+01
5.837516764426331e-01 8.114136823547504e-01 2.087643344895820e+01
5.837516764426303e-01 8.114136823547525e-01 2.087643344895821e+01
4.573945845398238e-01 8.882386764163273e-01 2.102452754077683e+01
4.573945845398237e-01 8.882386764163273e-01 2.102452754077683e+01
2.527815540384729e-01 9.667300861487242e-01 2.124416147965650e+01
6.456898117728429e-01 3.000000000000000e-01 2.278583752045245e+01
8.155693453656027e-01 3.000000000000000e-01 2.287482203804870e+01
4.285291039950259e-01 3.000000000000000e-01 2.267208667352115e+01
6.456898117728418e-01 2.999999999999999e-01 2.278583752045245e+01
1.000000000000000e-01 3.000000000000000e-01 2.250000000000000e+01
4.285291039950233e-01 3.000000000000000e-01 2.267208667352115e+01
1.053627568438919e+00 3.000000000000000e-01 2.299951920251566e+01
1.150000000000000e+00 3.000000000000000e-01 2.305000000000000e+01
8.155693453656017e-01 2.999999999999999e-01 2.287482203804870e+01
1.053627568438926e+00 3.000000000000000e-01 2.299951920251567e+01
1.312800678387915e+00 3.000000000000000e-01 2.313527654582219e+01
1.590794601608110e+00 3.000000000000000e-01 2.328089241036613e+01
1.590794601608110e+00 3.000000000000000e-01 2.328089241036613e+01
1.995978191109075e+00 3.000000000000000e-01 2.349313143343815e+01
1.995978191109071e+00 2.999999999999999e-01 2.349313143343814e+01
2.000000000000000e+00 3.000000000000000e-01 2.349523809523816e+01
1.150000000000000e+00 3.000000000000000e-01 2.305000000000000e+01
1.204849796220207e+00 2.999999999999999e-01 2.307873084563913e+01
1.204849796220206e+00 3.000000000000000e-01 2.307873084563913e+01
1.312800678387914e+00 3.000000000000000e-01 2.313527654582218e+01
        </DataArray>
      </Points>

      <Cells>
        <DataArray type="Int32" Name="connectivity" format="ascii">
0 1 2 3 4 5 6 7 8 9 10 11 12 13 14 15 16 17 18 19 20 21 22 23 24 25 26 27 28 29 30 31 32 33 34 35 36 37 38 39 40 41 42 43 44 45 46 47 48 49 50 51 52 53 54 55 56 57 58 59 60 61 62 63 64 65 66 67 68 69 70 71 72 73 74 75 76 77 78 79 80 81 82 83 84 85 86 87 88 89 90 91 92 93 94 95 96 97 98 99 100 101 102 103 104 105 106 107 108 109 110 111 112 113 114 115 116 117 118 119 120 121 122 123 124 125 126 127 128 129 130 131 132 133 134 135 136 137 138 139 140 141 142 143 
        </DataArray>
        <DataArray type="Int32" Name="offsets" format="ascii">

        </DataArray>
        <DataArray type="UInt8" Name="types" format="ascii">

        </DataArray>
      </Cells>

  <PointData>
        <DataArray type="Float64" Name="displacement" NumberOfComponents="3" format="ascii">
2.707615691049933e-01 2.561153719977825e-01 2.827427060558681e-02
5.004149823280368e-02 1.412473339815752e-01 -2.576480884771803e-03
5.004149823280390e-02 1.412473339815752e-01 -2.576480884771859e-03
3.798421203558267e-02 1.289004467635778e-01 -3.209907930154188e-03
3.798421203558278e-02 1.289004467635778e-01 -3.209907930154188e-03
-1.531404282810178e-03 7.756542485352680e-02 -6.744620974829640e-03
-1.531404282810178e-03 7.756542485352680e-02 -6.744620974829640e-03
-2.127734533673331e-02 2.771071813736803e-02 -9.017938587441710e-03
-2.127734533673320e-02 2.771071813736803e-02 -9.017938587441487e-03
-2.161505071187775e-02 2.403731839028056e-02 -8.817904435022728e-03
-2.161505071187780e-02 2.403731839028045e-02 -8.817904435022506e-03
0.000000000000000e+00 0.000000000000000e+00 0.000000000000000e+00
0.000000000000000e+00 0.000000000000000e+00 0.000000000000000e+00
-1.483646023484936e-02 4.197706054936978e-02 3.819924531525576e-03
-1.483646023484952e-02 4.197706054936978e-02 3.819924531525576e-03
-5.888008628896546e-02 1.951588812431535e-01 1.659396798927792e-02
-6.548085063965092e-02 2.176447320393378e-01 1.749558604811607e-02
-7.790880589206783e-02 2.594081436903524e-01 1.850868867794908e-02
-5.888008628896546e-02 1.951588812431535e-01 1.659396798927792e-02
-6.548085063965081e-02 2.176447320393373e-01 1.749558604811652e-02
-7.790880589206783e-02 2.594081436903524e-01 1.850868867794908e-02
-1.268980300668978e-01 4.309708536956854e-01 1.521910758389478e-02
-1.268980300668974e-01 4.309708536956852e-01 1.521910758389522e-02
-2.169550886461988e-01 7.336208797175121e-01 -1.124579406172632e-02
3.457038900725583e-01 3.504379342117984e-01 3.770033594690059e-02
8.029953512646415e-02 1.987811949687135e-01 -1.986630309183113e-03
8.029953512646404e-02 1.987811949687135e-01 -1.986630309184001e-03
6.506119163460578e-02 1.838122077535739e-01 -3.249493836399608e-03
6.506119163460578e-02 1.838122077535739e-01 -3.249493836398720e-03
1.572029743769143e-02 1.181854818329207e-01 -5.838122888503605e-03
1.572029743769143e-02 1.181854818329207e-01 -5.838122888503605e-03
-9.099395894166085e-03 5.310989834275004e-02 -4.074611030924657e-03
-9.099395894166085e-03 5.310989834275015e-02 -4.074611030922881e-03
-9.786192110927183e-03 4.850741270958425e-02 -3.717601243399926e-03
-9.786192110927239e-03 4.850741270958447e-02 -3.717601243399038e-03
0.000000000000000e+00 0.000000000000000e+00 0.000000000000000e+00
0.000000000000000e+00 0.000000000000000e+00 0.000000000000000e+00
-3.072814286595477e-02 6.908460505016528e-02 1.067823224941300e-02
-3.072814286595471e-02 6.908460505016534e-02 1.067823224941300e-02
-1.172298896963991e-01 2.953780998624185e-01 4.096742836922385e-02
-1.289704341470567e-01 3.254694993318684e-01 4.359869416796247e-02
-1.503076804456975e-01 3.793980746713424e-01 4.730083356017900e-02
-1.172298896963992e-01 2.953780998624181e-01 4.096742836922385e-02
-1.289704341470567e-01 3.254694993318684e-01 4.359869416796247e-02
-1.503076804456975e-01 3.793980746713424e-01 4.730083356017900e-02
-2.381296924676246e-01 6.004992057152517e-01 4.883833276285365e-02
-2.381296924676246e-01 6.004992057152514e-01 4.883833276285188e-02
-3.942251691195440e-01 9.810417652177568e-01 1.815444492377516e-02
3.486805433187193e-01 3.559236958972078e-01 3.732706488572113e-02
8.186580416381395e-02 2.024190037132992e-01 -2.357057563168397e-03
8.186580416381406e-02 2.024190037132992e-01 -2.357057563170173e-03
6.650948559407077e-02 1.872861877457288e-01 -3.591385328677532e-03
6.650948559407033e-02 1.872861877457284e-01 -3.591385328679308e-03
1.658544639857051e-02 1.209435819151018e-01 -6.110604602447722e-03
1.658544639857051e-02 1.209435819151018e-01 -6.110604602447722e-03
-8.829759437026852e-03 5.484687934186172e-02 -4.273860798717166e-03
-8.829759437026796e-03 5.484687934186194e-02 -4.273860798718943e-03
-9.551690789660228e-03 5.014453719558176e-02 -3.904024915931004e-03
-9.551690789660172e-03 5.014453719558221e-02 -3.904024915932780e-03
0.000000000000000e+00 0.000000000000000e+00 0.000000000000000e+00
0.000000000000000e+00 0.000000000000000e+00 0.000000000000000e+00
-3.157379762254714e-02 7.091559699689115e-02 1.072740646236703e-02
-3.157379762254714e-02 7.091559699689115e-02 1.072740646236703e-02
-1.200669669457253e-01 3.017170859198573e-01 4.094536844827346e-02
-1.320067150978902e-01 3.322315015128294e-01 4.353467399660360e-02
-1.536579672670246e-01 3.867975551013914e-01 4.713905388113915e-02
-1.200669669457255e-01 3.017170859198575e-01 4.094536844827346e-02
-1.320067150978887e-01 3.322315015128260e-01 4.353467399660360e-02
-1.536579672670246e-01 3.867975551013914e-01 4.713905388113915e-02
-2.430617022767574e-01 6.102442515426219e-01 4.816309144390729e-02
-2.430617022767574e-01 6.102442515426219e-01 4.816309144390729e-02
-4.025924627667434e-01 9.945298790946824e-01 1.641845204186509e-02
5.752649727852654e-02 1.159627171160628e-01 4.474766611840764e-03
2.235300071640167e-02 8.929061719685250e-02 -4.470495625952253e-05
7.007915404581122e-03 7.363233139290171e-02 -3.567280723089539e-03
3.348207863742680e-03 6.989898106718218e-02 -4.718528312482206e-03
2.235300071640167e-02 8.929061719685250e-02 -4.470495625774618e-05
7.007915404581122e-03 7.363233139290148e-02 -3.567280723089539e-03
1.936306982105666e-01 1.601589222699961e-01 2.422070340514537e-02
5.752649727852643e-02 1.159627171160627e-01 4.474766611837211e-03
-1.340221939805047e-02 -1.223193154062052e-03 -4.604126116610985e-03
0.000000000000000e+00 0.000000000000000e+00 0.000000000000000e+00
3.348207863742680e-03 6.989898106718218e-02 -4.718528312482206e-03
-1.105804783082887e-02 4.707546646347471e-02 -8.561087763053976e-03
-1.105804783082909e-02 4.707546646347438e-02 -8.561087763055752e-03
-1.625793188261260e-02 2.443113029358301e-02 -8.385778911744524e-03
-1.625793188261265e-02 2.443113029358301e-02 -8.385778911744524e-03
-1.340221939805047e-02 -1.223193154062052e-03 -4.604126116607432e-03
-1.344137420665437e-02 4.799216076758955e-02 5.713073607367392e-03
-2.011276545082064e-02 7.934689581025117e-02 8.863337669783533e-03
-6.714360782653583e-03 1.881400754435242e-02 2.165938038032778e-03
-1.344137420665437e-02 4.799216076758978e-02 5.713073607367392e-03
0.000000000000000e+00 0.000000000000000e+00 0.000000000000000e+00
-6.714360782653639e-03 1.881400754435253e-02 2.165938038029225e-03
-3.172221921401275e-02 1.349029813808186e-01 1.280239799772787e-02
-3.722034723882706e-02 1.609867689574127e-01 1.396343284000068e-02
-2.011276545082075e-02 7.934689581025128e-02 8.863337669783533e-03
-3.172221921401319e-02 1.349029813808184e-01 1.280239799772431e-02
-4.627606599184442e-02 2.077079801521079e-01 1.502361041772460e-02
-6.140476085686508e-02 2.963591889368226e-01 1.364705974499358e-02
-6.140476085686508e-02 2.963591889368234e-01 1.364705974499003e-02
-9.400358029732669e-02 4.641525764403330e-01 2.672406719050002e-03
-9.400358029732692e-02 4.641525764403326e-01 2.672406719046450e-03
-9.444445972380011e-02 4.661370046295313e-01 2.501609668982496e-03
-3.722034723882706e-02 1.609867689574127e-01 1.396343284000068e-02
-4.039782354958121e-02 1.764800604938269e-01 1.445734793530207e-02
-4.039782354958121e-02 1.764800604938267e-01 1.445734793530562e-02
-4.627606599184464e-02 2.077079801521076e-01 1.502361041772460e-02
1.187070879297045e-01 2.328246379857607e-01 1.656735511652130e-03
4.991374445076857e-02 1.683292407642668e-01 -4.134663188352761e-03
2.233336320150558e-02 1.300706964036522e-01 -5.443807267820233e-03
1.680703679435169e-02 1.208543314138996e-01 -5.684291251085938e-03
4.991374445076835e-02 1.683292407642666e-01 -4.134663188345655e-03
2.233336320150570e-02 1.300706964036522e-01 -5.443807267820233e-03
3.432427135223483e-01 3.504162936087571e-01 3.649211083937942e-02
1.187070879297037e-01 2.328246379857601e-01 1.656735511652130e-03
-8.138394719044595e-03 1.342645339049908e-02 -1.508846041637923e-04
0.000000000000000e+00 0.000000000000000e+00 0.000000000000000e+00
1.680703679435169e-02 1.208543314138996e-01 -5.684291251085938e-03
-3.454123765459061e-03 7.684358226355026e-02 -5.474278072252758e-03
-3.454123765459505e-03 7.684358226354937e-02 -5.474278072256311e-03
-1.043793048557951e-02 4.513604819326644e-02 -3.534508843177520e-03
-1.043793048557956e-02 4.513604819326633e-02 -3.534508843177520e-03
-8.138394719044678e-03 1.342645339049919e-02 -1.508846041637923e-04
-5.261676566513585e-02 1.253797069511396e-01 1.934782672635293e-02
-8.226553605361808e-02 2.032508218461747e-01 3.020227011303334e-02
-2.292297847896341e-02 4.868380027142843e-02 7.076972565066342e-03
-5.261676566513573e-02 1.253797069511391e-01 1.934782672635293e-02
0.000000000000000e+00 0.000000000000000e+00 0.000000000000000e+00
-2.292297847896313e-02 4.868380027142771e-02 7.076972565066342e-03
-1.311691986615858e-01 3.299674808873239e-01 4.345089928625612e-02
-1.528385714824154e-01 3.847467021992738e-01 4.714136226444765e-02
-8.226553605361786e-02 2.032508218461743e-01 3.020227011303334e-02
-1.311691986615873e-01 3.299674808873279e-01 4.345089928625256e-02
-1.919635741483698e-01 4.829447342297811e-01 5.019096852826621e-02
-2.674169632601553e-01 6.711323714671125e-01 4.601042560844348e-02
-2.674169632601551e-01 6.711323714671125e-01 4.601042560844704e-02
-3.984827790922096e-01 9.859075103294637e-01 1.890769606295706e-02
-3.984827790922083e-01 9.859075103294604e-01 1.890769606296416e-02
-3.999166601554425e-01 9.892444406564469e-01 1.851472397876464e-02
-1.528385714824154e-01 3.847467021992738e-01 4.714136226444765e-02
-1.656178609702341e-01 4.167830679970972e-01 4.862437651775764e-02
-1.656178609702341e-01 4.167830679970968e-01 4.862437651775764e-02
-1.919635741483694e-01 4.829447342297803e-01 5.019096852826976e-02
        </DataArray>
        <DataArray type="Float64" Name="projection_direction" NumberOfComponents="3" format="ascii">
5.120442330026842e-03 1.406235252260468e-02 -5.276504852233365e-03
1.065566520456140e-02 1.495873838903283e-02 -2.433928996472934e-03
1.065566520456107e-02 1.495873838903294e-02 -2.433928996472934e-03
4.337836826725727e-03 9.756871129560141e-03 -2.477274651367878e-03
4.337836826725616e-03 9.756871129560252e-03 -2.477274651368155e-03
-3.324753442234596e-03 -5.876617415759178e-03 5.492940363549526e-04
-3.324753442234596e-03 -5.876617415759178e-03 5.492940363549526e-04
4.175209181913164e-03 1.072519096308533e-02 -7.688185667776848e-04
4.175209181913331e-03 1.072519096308522e-02 -7.688185667775738e-04
2.055853767357452e-03 6.909171423430061e-03 -5.995394421485223e-04
2.055853767357452e-03 6.909171423430061e-03 -5.995394421487443e-04
0.000000000000000e+00 0.000000000000000e+00 0.000000000000000e+00
-5.201933010464815e-04 1.833890791698045e-03 6.813529529603457e-05
1.108243053027702e-03 -9.926073400588042e-03 -1.939745396783987e-03
1.108243053027924e-03 -9.926073400587987e-03 -1.939745396783543e-03
5.657539689601920e-04 -3.079576692436470e-03 1.124563318627203e-03
2.702735985019578e-04 -1.404456148913824e-03 3.479720108066076e-04
2.580554435605009e-05 -2.972468112912852e-04 -5.861014885817362e-04
5.657539689601920e-04 -3.079576692436470e-03 1.124563318627203e-03
2.702735985019578e-04 -1.404456148913713e-03 3.479720108066076e-04
2.580554435605009e-05 -2.972468112912852e-04 -5.861014885817362e-04
8.567929744536240e-04 -1.992651655507993e-03 1.324001712263545e-03
8.567929744536240e-04 -1.992651655507660e-03 1.324001712263545e-03
2.248256907624979e-03 -2.900285108764278e-03 1.026968634384673e-03
-7.939587825480432e-03 -5.832605090724141e-03 -3.690096335965620e-03
-2.879141366142757e-03 -2.415656990441106e-03 -3.207624288271482e-03
-2.879141366143090e-03 -2.415656990440884e-03 -3.207624288273259e-03
-3.460098730294070e-03 -3.389892993965304e-03 -3.032909153643182e-03
-3.460098730294070e-03 -3.389892993965304e-03 -3.032909153643182e-03
6.814773596716117e-04 5.509190109552753e-04 7.890914991879328e-04
6.814773596716117e-04 5.509190109552753e-04 7.890914991879328e-04
-7.388707027437547e-04 -5.192029587153257e-05 -1.541786264906975e-04
-7.388707027436436e-04 -5.192029587175462e-05 -1.541786264924738e-04
-9.501986487764902e-04 -5.463257989894998e-04 -1.822907731066081e-04
-9.501986487761571e-04 -5.463257989893888e-04 -1.822907731066081e-04
0.000000000000000e+00 0.000000000000000e+00 8.881784197001252e-16
-4.094810208476046e-04 -2.461547490192062e-03 -8.343935543830838e-04
8.973230033690327e-04 1.575277069050918e-03 4.091242117771898e-04
8.973230033689772e-04 1.575277069050973e-03 4.091242117789662e-04
7.482117874491045e-06 -9.762753313300454e-04 2.064344112682193e-04
6.560105126691695e-04 3.190459712110183e-05 4.555581837752953e-04
5.307355270467440e-05 6.124812875342167e-04 -6.138698212154736e-05
7.482117874935135e-06 -9.762753313293793e-04 2.064344112699956e-04
6.560105126691695e-04 3.190459712110183e-05 4.555581837752953e-04
5.307355270467440e-05 6.124812875342167e-04 -6.138698212154736e-05
9.389281977021380e-04 -5.075344697598183e-04 7.792663773074082e-04
9.389281977023600e-04 -5.075344697593742e-04 7.792663773091846e-04
1.508942238120703e-03 6.763927664337199e-04 4.567978974883147e-04
-7.709714310569549e-03 -5.527482047439192e-03 -3.968789856431343e-03
-3.665149486692831e-03 -1.942781538062488e-03 -3.219650167247678e-03
-3.665149486692720e-03 -1.942781538062155e-03 -3.219650167247678e-03
-4.152113023184967e-03 -3.377922142270173e-03 -3.285663003627093e-03
-4.152113023184856e-03 -3.377922142269951e-03 -3.285663003625316e-03
1.175500779826200e-03 7.659558741663908e-04 5.602572739142886e-04
1.175500779826200e-03 7.659558741663908e-04 5.602572739142886e-04
-7.523351975602943e-04 -2.436573232205141e-04 -1.745470091947254e-04
-7.523351975602943e-04 -2.436573232205141e-04 -1.745470091876200e-04
-7.213620396816500e-04 -5.827652746850376e-04 -4.254770945379960e-04
-7.213620396814835e-04 -5.827652746848155e-04 -4.254770945344433e-04
0.000000000000000e+00 0.000000000000000e+00 0.000000000000000e+00
2.544510041864456e-05 -3.486050186063017e-03 -1.018442156105692e-03
1.382173849742707e-04 5.364791706986005e-04 4.372470304687681e-04
1.382173849744928e-04 5.364791706983785e-04 4.372470304669918e-04
1.272070846398687e-04 -9.660341773838343e-04 3.317269723108751e-04
8.030532581523309e-04 2.468889899731597e-05 7.524407050993887e-04
-1.576562706415707e-04 6.209578830296270e-04 1.440528640372918e-05
1.272070846394247e-04 -9.660341773835013e-04 3.317269723108751e-04
8.030532581523309e-04 2.468889899764903e-05 7.524407051029414e-04
-1.576562706415707e-04 6.209578830296270e-04 1.440528640372918e-05
1.397025168245136e-03 -6.693805827864274e-04 6.808997327176769e-04
1.397025168244914e-03 -6.693805827862054e-04 6.808997327212296e-04
9.027617206980310e-05 2.770696936538197e-03 -5.738546006508471e-04
6.472355321277323e-03 6.281758127071213e-03 -2.403904797017020e-04
-7.291159554245641e-03 -3.673080683769037e-03 -1.079211431795457e-03
4.813257967785423e-03 7.384783293759467e-03 -7.914884333040106e-04
2.346536865021176e-03 2.903735131337126e-03 -1.422960709742682e-04
-7.291159554245641e-03 -3.673080683769037e-03 -1.079211431793681e-03
4.813257967785312e-03 7.384783293759578e-03 -7.914884333057870e-04
-7.558792096728828e-03 2.176472749533753e-03 -3.672508480123682e-03
6.472355321277323e-03 6.281758127071213e-03 -2.403904797070311e-04
-1.746790974761381e-03 -2.637705904029231e-03 -2.893876856120414e-04
6.607345871076740e-18 0.000000000000000e+00 0.000000000000000e+00
2.346536865021176e-03 2.903735131337126e-03 -1.422960709742682e-04
-1.806572894767600e-03 -7.651658326451871e-03 1.032792707489349e-03
-1.806572894767489e-03 -7.651658326451871e-03 1.032792707485797e-03
5.184083142035223e-03 1.323093444131707e-02 -4.575662354184828e-04
5.184083142035334e-03 1.323093444131718e-02 -4.575662354149301e-04
-1.746790974761325e-03 -2.637705904029342e-03 -2.893876856155941e-04
-1.463617924404303e-04 2.874904270032674e-04 -3.454808096492457e-05
-4.304722733838862e-05 1.026276413840455e-03 9.017732178691062e-04
1.312308919780736e-03 -7.084182901503588e-03 -1.097950091988764e-03
-1.463617924402083e-04 2.874904270033229e-04 -3.454808096492457e-05
-9.507284229813007e-04 2.277569962200465e-03 3.707147634912644e-04
1.312308919780791e-03 -7.084182901503699e-03 -1.097950091988764e-03
-4.350081050736865e-04 2.421063415967817e-03 -2.958237654269169e-04
-9.091787164683396e-06 -1.730375808515927e-03 -6.656797618731503e-05
-4.304722733827759e-05 1.026276413840455e-03 9.017732178691062e-04
-4.350081050732424e-04 2.421063415967928e-03 -2.958237654233642e-04
6.982626093396949e-04 -1.471396205895537e-03 -1.430194706237842e-04
3.310418351483158e-04 -2.286723737995433e-03 8.080790108806468e-04
3.310418351483158e-04 -2.286723737996210e-03 8.080790108806468e-04
2.357865200371512e-03 -6.392207902351288e-03 9.884687631114275e-04
2.357865200372178e-03 -6.392207902351177e-03 9.884687631149802e-04
2.534436991958433e-03 -6.901450604856363e-03 1.053822461226872e-03
-9.091787164683396e-06 -1.730375808515927e-03 -6.656797618731503e-05
2.815653983898603e-04 -4.741001726455807e-03 2.307925724629456e-04
2.815653983898603e-04 -4.741001726455696e-03 2.307925724700510e-04
6.982626093401390e-04 -1.471396205895648e-03 -1.430194706237842e-04
-4.582162394837219e-04 6.856140887125939e-04 -3.898781843894028e-04
-2.896525033157737e-03 -2.083880059702059e-03 -1.292383283356457e-03
-2.802326875472883e-05 6.599351843852297e-04 4.079334838351656e-04
5.426336986940061e-04 5.896211821220243e-04 5.931962370233634e-04
-2.896525033157737e-03 -2.083880059702170e-03 -1.292383283370668e-03
-2.802326875472883e-05 6.599351843854517e-04 4.079334838422710e-04
-9.317490644905169e-03 -4.278264823757816e-03 -3.808858653883362e-03
-4.582162394830558e-04 6.856140887134821e-04 -3.898781843965082e-04
-4.990380603074607e-04 4.981133047110564e-05 2.235612347512017e-04
1.471019436802609e-18 0.000000000000000e+00 -1.421085471520200e-14
5.426336986940061e-04 5.896211821220243e-04 5.931962370233634e-04
1.757668463584383e-03 7.478090776834589e-04 4.513811484265773e-04
1.757668463584383e-03 7.478090776837920e-04 4.513811484194719e-04
-9.727595696369939e-04 -3.044181982927441e-04 -3.274439663130124e-04
-9.727595696369939e-04 -3.044181982925220e-04 -3.274439663165651e-04
-4.990380603073497e-04 4.981133047088360e-05 2.235612347512017e-04
2.686040206137941e-04 -5.494569603205490e-04 -2.172937769699956e-04
-8.901062368690260e-04 -1.183657438406316e-03 -1.697008870458205e-04
1.971787104193545e-05 2.276633105441128e-03 -5.734849709781997e-05
2.686040206141271e-04 -5.494569603205490e-04 -2.172937769628902e-04
-2.629475609661203e-05 -2.829252184203213e-03 -6.066672984204047e-04
1.971787104132483e-05 2.276633105441683e-03 -5.734849708716183e-05
6.519036552949942e-04 -4.179812507211222e-04 2.014189763421825e-04
-1.061234550268075e-04 2.872127161301918e-04 -2.786930792346709e-04
-8.901062368690260e-04 -1.183657438405983e-03 -1.697008870387151e-04
6.519036552949942e-04 -4.179812507217884e-04 2.014189763350771e-04
6.157029120619217e-04 8.160552733270654e-04 2.056538557333454e-04
-4.694822834736545e-04 -1.057759117056967e-03 5.348199978456591e-04
-4.694822834732104e-04 -1.057759117056745e-03 5.348199978456591e-04
5.513853870446894e-04 -5.096090903200512e-04 6.084852045766809e-04