<?xml version="1.0" ?> 
<!-- 
# vtk DataFile Version 3.0
-->
<VTKFile type="UnstructuredGrid" version="0.1" compressor="vtkZLibDataCompressor" byte_order="LittleEndian">
  <UnstructuredGrid>
    <FieldData>
      <DataArray type="Float64" Name="TIME" NumberOfTuples="1" format="ascii">
1.000000000000000e+00 
      </DataArray>
    </FieldData>

    <Piece NumberOfPoints="228" NumberOfCells="0" >
      <Points>
        <DataArray type="Float64" NumberOfComponents="3" format="ascii">
2.000000000000000e+00 3.000000000000000e-01 1.850000000000000e+01
2.000000000000000e+00 3.000000000000000e-01 1.800000000000000e+01
1.707207993010000e+00 3.000000000000000e-01 1.799996097670000e+01
1.500000000000000e+00 3.000000000000000e-01 1.850000000000000e+01
2.000000000000000e+00 3.000000000000000e-01 1.850000000000000e+01
1.707207993010000e+00 3.000000000000000e-01 1.799996097670000e+01
1.707207993010000e+00 3.000000000000000e-01 1.799996097670000e+01
2.000000000000000e+00 3.000000000000000e-01 1.750000000000000e+01
1.500000000000000e+00 3.000000000000000e-01 1.750000000000000e+01
1.500000000000000e+00 3.000000000000000e-01 1.750000000000000e+01
1.243247958050000e+00 3.000000000000000e-01 1.799976586030000e+01
1.707207993010000e+00 3.000000000000000e-01 1.799996097670000e+01
0.000000000000000e+00 3.000000000000000e-01 1.750000000000000e+01
0.000000000000000e+00 3.000000000000000e-01 1.800000000000000e+01
2.924006335830000e-01 3.000000000000000e-01 1.799985499550000e+01
5.000000000000000e-01 3.000000000000000e-01 1.750000000000000e+01
7.544038015000000e-01 3.000000000000000e-01 1.799912997290000e+01
1.000000000000000e+00 3.000000000000000e-01 1.750000000000000e+01
5.000000000000000e-01 3.000000000000000e-01 1.750000000000000e+01
0.000000000000000e+00 3.000000000000000e-01 1.750000000000000e+01
2.924006335830000e-01 3.000000000000000e-01 1.799985499550000e+01
1.243247958050000e+00 3.000000000000000e-01 1.799976586030000e+01
7.544038015000000e-01 3.000000000000000e-01 1.799912997290000e+01
1.000000000000000e+00 3.000000000000000e-01 1.850000000000000e+01
1.000000000000000e+00 3.000000000000000e-01 1.750000000000000e+01
1.243247958050000e+00 3.000000000000000e-01 1.799976586030000e+01
1.500000000000000e+00 3.000000000000000e-01 1.750000000000000e+01
1.243247958050000e+00 3.000000000000000e-01 1.799976586030000e+01
1.000000000000000e+00 3.000000000000000e-01 1.850000000000000e+01
1.500000000000000e+00 3.000000000000000e-01 1.850000000000000e+01
1.707207993010000e+00 3.000000000000000e-01 1.799996097670000e+01
2.000000000000000e+00 3.000000000000000e-01 1.800000000000000e+01
2.000000000000000e+00 3.000000000000000e-01 1.750000000000000e+01
1.243247958050000e+00 3.000000000000000e-01 1.799976586030000e+01
1.000000000000000e+00 3.000000000000000e-01 1.750000000000000e+01
7.544038015000000e-01 3.000000000000000e-01 1.799912997290000e+01
1.243247958050000e+00 3.000000000000000e-01 1.799976586030000e+01
1.500000000000000e+00 3.000000000000000e-01 1.850000000000000e+01
1.707207993010000e+00 3.000000000000000e-01 1.799996097670000e+01
7.544038015000000e-01 3.000000000000000e-01 1.799912997290000e+01
2.924006335830000e-01 3.000000000000000e-01 1.799985499550000e+01
5.000000000000000e-01 3.000000000000000e-01 1.850000000000000e+01
7.544038015000000e-01 3.000000000000000e-01 1.799912997290000e+01
5.000000000000000e-01 3.000000000000000e-01 1.750000000000000e+01
2.924006335830000e-01 3.000000000000000e-01 1.799985499550000e+01
5.000000000000000e-01 3.000000000000000e-01 1.850000000000000e+01
1.000000000000000e+00 3.000000000000000e-01 1.850000000000000e+01
7.544038015000000e-01 3.000000000000000e-01 1.799912997290000e+01
0.000000000000000e+00 1.000000000000000e+00 2.050000000000000e+01
4.329390516020000e-01 9.014231956180000e-01 2.074976147080000e+01
5.000000000000000e-01 8.660254037839999e-01 2.000000000000000e+01
2.220099146240000e-01 9.750444081210000e-01 2.062488073540000e+01
4.668051728700000e-01 8.843601814770000e-01 2.037488073540000e+01
2.588190451030000e-01 9.659258262890000e-01 2.025000000000000e+01
7.282793318550000e-01 6.852803913680000e-01 2.048410264420000e+01
5.000000000000000e-01 8.660254037839999e-01 2.000000000000000e+01
4.329390516020000e-01 9.014231956180000e-01 2.074976147080000e+01
6.207533480730000e-01 7.840059188910000e-01 2.024205132210000e+01
4.668051728700000e-01 8.843601814770000e-01 2.037488073540000e+01
5.905814604920000e-01 8.069780285250000e-01 2.061693205750000e+01
7.282793318550000e-01 6.852803913680000e-01 2.048410264420000e+01
8.660254037839999e-01 5.000000000000000e-01 2.000000000000000e+01
5.000000000000000e-01 8.660254037839999e-01 2.000000000000000e+01
8.025173539410000e-01 5.966287762280000e-01 2.024205132210000e+01
7.071067811870000e-01 7.071067811870000e-01 2.000000000000000e+01
6.207533480730000e-01 7.840059188910000e-01 2.024205132210000e+01
8.660254037839999e-01 5.000000000000000e-01 2.000000000000000e+01
7.282793318550000e-01 6.852803913680000e-01 2.048410264420000e+01
9.504792740630000e-01 3.107879495360000e-01 2.074983937880000e+01
8.025173539410000e-01 5.966287762280000e-01 2.024205132210000e+01
8.600109077700000e-01 5.102756495440000e-01 2.061697101150000e+01
9.131662560400000e-01 4.075872775610000e-01 2.037491968940000e+01
9.504792740630000e-01 3.107879495360000e-01 2.074983937880000e+01
7.283520826140000e-01 6.852030675290000e-01 2.101496824100000e+01
8.660254037839999e-01 5.000000000000000e-01 2.150000000000000e+01
8.600379940360000e-01 5.102299959960001e-01 2.088240380990000e+01
8.025490242590000e-01 5.965861745470000e-01 2.125748412050000e+01
9.131662560400000e-01 4.075872775610000e-01 2.112491968940000e+01
7.282793318550000e-01 6.852803913680000e-01 2.048410264420000e+01
4.329390516020000e-01 9.014231956180000e-01 2.074976147080000e+01
7.283520826140000e-01 6.852030675290000e-01 2.101496824100000e+01
5.905814604920000e-01 8.069780285250000e-01 2.061693205750000e+01
5.906242972910000e-01 8.069466769560000e-01 2.088236485590000e+01
7.283157082610000e-01 6.852417304140000e-01 2.074953544260000e+01
1.000000000000000e+00 0.000000000000000e+00 2.050000000000000e+01
1.000000000000000e+00 0.000000000000000e+00 2.000000000000000e+01
9.504792740630000e-01 3.107879495360000e-01 2.074983937880000e+01
1.000000000000000e+00 0.000000000000000e+00 2.025000000000000e+01
9.875422203790000e-01 1.573542594550000e-01 2.037491968940000e+01
9.875422203790000e-01 1.573542594550000e-01 2.062491968940000e+01
7.282793318550000e-01 6.852803913680000e-01 2.048410264420000e+01
7.283520826140000e-01 6.852030675290000e-01 2.101496824100000e+01
9.504792740630000e-01 3.107879495360000e-01 2.074983937880000e+01
7.283157082610000e-01 6.852417304140000e-01 2.074953544260000e+01
8.600379940360000e-01 5.102299959960001e-01 2.088240380990000e+01
8.600109077700000e-01 5.102756495440000e-01 2.061697101150000e+01
4.329390516020000e-01 9.014231956180000e-01 2.074976147080000e+01
5.000000000000000e-01 8.660254037839999e-01 2.150000000000000e+01
7.283520826140000e-01 6.852030675290000e-01 2.101496824100000e+01
4.668051728700000e-01 8.843601814770000e-01 2.112488073540000e+01
6.207949653770000e-01 7.839729657090000e-01 2.125748412050000e+01
5.906242972910000e-01 8.069466769560000e-01 2.088236485590000e+01
9.504792740630000e-01 3.107879495360000e-01 2.074983937880000e+01
1.000000000000000e+00 0.000000000000000e+00 2.000000000000000e+01
8.660254037839999e-01 5.000000000000000e-01 2.000000000000000e+01
9.875422203790000e-01 1.573542594550000e-01 2.037491968940000e+01
9.659258262890000e-01 2.588190451030000e-01 2.000000000000000e+01
9.131662560400000e-01 4.075872775610000e-01 2.037491968940000e+01
4.329390516020000e-01 9.014231956180000e-01 2.074976147080000e+01
0.000000000000000e+00 1.000000000000000e+00 2.050000000000000e+01
0.000000000000000e+00 1.000000000000000e+00 2.100000000000000e+01
2.220099146240000e-01 9.750444081210000e-01 2.062488073540000e+01
0.000000000000000e+00 1.000000000000000e+00 2.075000000000000e+01
2.220099146240000e-01 9.750444081210000e-01 2.087488073540000e+01
7.283520826140000e-01 6.852030675290000e-01 2.101496824100000e+01
5.000000000000000e-01 8.660254037839999e-01 2.150000000000000e+01
8.660254037839999e-01 5.000000000000000e-01 2.150000000000000e+01
6.207949653770000e-01 7.839729657090000e-01 2.125748412050000e+01
7.071067811870000e-01 7.071067811870000e-01 2.150000000000000e+01
8.025490242590000e-01 5.965861745470000e-01 2.125748412050000e+01
0.000000000000000e+00 1.000000000000000e+00 2.150000000000000e+01
5.000000000000000e-01 8.660254037839999e-01 2.150000000000000e+01
0.000000000000000e+00 1.000000000000000e+00 2.100000000000000e+01
2.588190451030000e-01 9.659258262890000e-01 2.150000000000000e+01
2.588190451030000e-01 9.659258262890000e-01 2.125000000000000e+01
0.000000000000000e+00 1.000000000000000e+00 2.125000000000000e+01
4.329390516020000e-01 9.014231956180000e-01 2.074976147080000e+01
0.000000000000000e+00 1.000000000000000e+00 2.100000000000000e+01
5.000000000000000e-01 8.660254037839999e-01 2.150000000000000e+01
2.220099146240000e-01 9.750444081210000e-01 2.087488073540000e+01
2.588190451030000e-01 9.659258262890000e-01 2.125000000000000e+01
4.668051728700000e-01 8.843601814770000e-01 2.112488073540000e+01
1.707207993010000e+00 3.000000000000000e-01 2.299996097670000e+01
2.000000000000000e+00 3.000000000000000e-01 2.300000000000000e+01
2.000000000000000e+00 3.000000000000000e-01 2.250000000000000e+01
1.853603996500000e+00 3.000000000000000e-01 2.299998048840000e+01
2.000000000000000e+00 3.000000000000000e-01 2.275000000000000e+01
1.853603996500000e+00 3.000000000000000e-01 2.274998048840000e+01
2.000000000000000e+00 3.000000000000000e-01 2.350000000000000e+01
2.000000000000000e+00 3.000000000000000e-01 2.300000000000000e+01
1.707207993010000e+00 3.000000000000000e-01 2.299996097670000e+01
2.000000000000000e+00 3.000000000000000e-01 2.325000000000000e+01
1.853603996500000e+00 3.000000000000000e-01 2.299998048840000e+01
1.853603996500000e+00 3.000000000000000e-01 2.324998048840000e+01
1.707207993010000e+00 3.000000000000000e-01 2.299996097670000e+01
2.000000000000000e+00 3.000000000000000e-01 2.250000000000000e+01
1.500000000000000e+00 3.000000000000000e-01 2.250000000000000e+01
1.853603996500000e+00 3.000000000000000e-01 2.274998048840000e+01
1.750000000000000e+00 3.000000000000000e-01 2.250000000000000e+01
1.603603996500000e+00 3.000000000000000e-01 2.274998048840000e+01
1.243247958050000e+00 3.000000000000000e-01 2.299976586030000e+01
1.500000000000000e+00 3.000000000000000e-01 2.350000000000000e+01
1.707207993010000e+00 3.000000000000000e-01 2.299996097670000e+01
1.371623979020000e+00 3.000000000000000e-01 2.324988293010000e+01
1.603603996500000e+00 3.000000000000000e-01 2.324998048840000e+01
1.475227975530000e+00 3.000000000000000e-01 2.299986341850000e+01
7.544038015000000e-01 3.000000000000000e-01 2.299912997290000e+01
2.924006335830000e-01 3.000000000000000e-01 2.299985499550000e+01
5.000000000000000e-01 3.000000000000000e-01 2.350000000000000e+01
5.234022175420000e-01 3.000000000000000e-01 2.299949248420000e+01
3.962003167920000e-01 3.000000000000000e-01 2.324992749770000e+01
6.272019007500000e-01 3.000000000000000e-01 2.324956498650000e+01
5.000000000000000e-01 3.000000000000000e-01 2.250000000000000e+01
7.544038015000000e-01 3.000000000000000e-01 2.299912997290000e+01
1.000000000000000e+00 3.000000000000000e-01 2.250000000000000e+01
6.272019007500000e-01 3.000000000000000e-01 2.274956498650000e+01
8.772019007500000e-01 3.000000000000000e-01 2.274956498650000e+01
7.500000000000000e-01 3.000000000000000e-01 2.250000000000000e+01
0.000000000000000e+00 3.000000000000000e-01 2.250000000000000e+01
0.000000000000000e+00 3.000000000000000e-01 2.300000000000000e+01
2.924006335830000e-01 3.000000000000000e-01 2.299985499550000e+01
0.000000000000000e+00 3.000000000000000e-01 2.275000000000000e+01
1.462003167920000e-01 3.000000000000000e-01 2.299992749770000e+01
1.462003167920000e-01 3.000000000000000e-01 2.274992749770000e+01
7.544038015000000e-01 3.000000000000000e-01 2.299912997290000e+01
5.000000000000000e-01 3.000000000000000e-01 2.250000000000000e+01
2.924006335830000e-01 3.000000000000000e-01 2.299985499550000e+01
6.272019007500000e-01 3.000000000000000e-01 2.274956498650000e+01
3.962003167920000e-01 3.000000000000000e-01 2.274992749770000e+01
5.234022175420000e-01 3.000000000000000e-01 2.299949248420000e+01
1.500000000000000e+00 3.000000000000000e-01 2.250000000000000e+01
1.243247958050000e+00 3.000000000000000e-01 2.299976586030000e+01
1.707207993010000e+00 3.000000000000000e-01 2.299996097670000e+01
1.371623979020000e+00 3.000000000000000e-01 2.274988293010000e+01
1.475227975530000e+00 3.000000000000000e-01 2.299986341850000e+01
1.603603996500000e+00 3.000000000000000e-01 2.274998048840000e+01
5.000000000000000e-01 3.000000000000000e-01 2.250000000000000e+01
0.000000000000000e+00 3.000000000000000e-01 2.250000000000000e+01
2.924006335830000e-01 3.000000000000000e-01 2.299985499550000e+01
2.500000000000000e-01 3.000000000000000e-01 2.250000000000000e+01
1.462003167920000e-01 3.000000000000000e-01 2.274992749770000e+01
3.962003167920000e-01 3.000000000000000e-01 2.274992749770000e+01
1.243247958050000e+00 3.000000000000000e-01 2.299976586030000e+01
7.544038015000000e-01 3.000000000000000e-01 2.299912997290000e+01
1.000000000000000e+00 3.000000000000000e-01 2.350000000000000e+01
9.988258797739999e-01 3.000000000000000e-01 2.299944791660000e+01
8.772019007500000e-01 3.000000000000000e-01 2.324956498650000e+01
1.121623979020000e+00 3.000000000000000e-01 2.324988293010000e+01
5.000000000000000e-01 3.000000000000000e-01 2.350000000000000e+01
1.000000000000000e+00 3.000000000000000e-01 2.350000000000000e+01
7.544038015000000e-01 3.000000000000000e-01 2.299912997290000e+01
7.500000000000000e-01 3.000000000000000e-01 2.350000000000000e+01
8.772019007500000e-01 3.000000000000000e-01 2.324956498650000e+01
6.272019007500000e-01 3.000000000000000e-01 2.324956498650000e+01
1.000000000000000e+00 3.000000000000000e-01 2.250000000000000e+01
1.243247958050000e+00 3.000000000000000e-01 2.299976586030000e+01
1.500000000000000e+00 3.000000000000000e-01 2.250000000000000e+01
1.121623979020000e+00 3.000000000000000e-01 2.274988293010000e+01
1.371623979020000e+00 3.000000000000000e-01 2.274988293010000e+01
1.250000000000000e+00 3.000000000000000e-01 2.250000000000000e+01
1.243247958050000e+00 3.000000000000000e-01 2.299976586030000e+01
1.000000000000000e+00 3.000000000000000e-01 2.350000000000000e+01
1.500000000000000e+00 3.000000000000000e-01 2.350000000000000e+01
1.121623979020000e+00 3.000000000000000e-01 2.324988293010000e+01
1.250000000000000e+00 3.000000000000000e-01 2.350000000000000e+01
1.371623979020000e+00 3.000000000000000e-01 2.324988293010000e+01
1.243247958050000e+00 3.000000000000000e-01 2.299976586030000e+01
1.000000000000000e+00 3.000000000000000e-01 2.250000000000000e+01
7.544038015000000e-01 3.000000000000000e-01 2.299912997290000e+01
1.121623979020000e+00 3.000000000000000e-01 2.274988293010000e+01
8.772019007500000e-01 3.000000000000000e-01 2.274956498650000e+01
9.988258797739999e-01 3.000000000000000e-01 2.299944791660000e+01
1.500000000000000e+00 3.000000000000000e-01 2.350000000000000e+01
2.000000000000000e+00 3.000000000000000e-01 2.350000000000000e+01
1.707207993010000e+00 3.000000000000000e-01 2.299996097670000e+01
1.750000000000000e+00 3.000000000000000e-01 2.350000000000000e+01
1.853603996500000e+00 3.000000000000000e-01 2.324998048840000e+01
1.603603996500000e+00 3.000000000000000e-01 2.324998048840000e+01
        </DataArray>
      </Points>

      <Cells>
        <DataArray type="Int32" Name="connectivity" format="ascii">

        </DataArray>
        <DataArray type="Int32" Name="offsets" format="ascii">

        </DataArray>
        <DataArray type="UInt8" Name="types" format="ascii">

        </DataArray>
      </Cells>

  <PointData>
        <DataArray type="Int32" Name="coupling_id" format="ascii">
8
8
8
8
8
8
8
8
8
8
8
8
8
8
8
8
8
8
8
8
8
8
8
8
8
8
8
8
8
8
8
8
8
8
8
8
8
8
8
8
8
8
8
8
8
8
8
8
9
9
9
9
9
9
9
9
9
9
9
9
9
9
9
9
9
9
9
9
9
9
9
9
9
9
9
9
9
9
9
9
9
9
9
9
9
9
9
9
9
9
9
9
9
9
9
9
9
9
9
9
9
9
9
9
9
9
9
9
9
9
9
9
9
9
9
9
9
9
9
9
9
9
9
9
9
9
9
9
9
9
9
9
10
10
10
10
10
10
10
10
10
10
10
10
10
10
10
10
10
10
10
10
10
10
10
10
10
10
10
10
10
10
10
10
10
10
10
10
10
10
10
10
10
10
10
10
10
10
10
10
10
10
10
10
10
10
10
10
10
10
10
10
10
10
10
10
10
10
10
10
10
10
10
10
10
10
10
10
10
10
10
10
10
10
10
10
10
10
10
10
10
10
10
10
10
10
10
10
        </DataArray>
        <DataArray type="Float64" Name="displacement" NumberOfComponents="3" format="ascii">
-2.220446049250313e-15 5.551115123125783e-16 0.000000000000000e+00
0.000000000000000e+00 -5.551115123125783e-17 0.000000000000000e+00
2.220446049250313e-16 -2.220446049250313e-16 0.000000000000000e+00
-4.440892098500626e-16 1.110223024625157e-16 0.000000000000000e+00
-2.220446049250313e-15 5.551115123125783e-16 0.000000000000000e+00
2.220446049250313e-16 -2.220446049250313e-16 0.000000000000000e+00
2.220446049250313e-16 -2.220446049250313e-16 0.000000000000000e+00
4.440892098500626e-16 -6.661338147750939e-16 0.000000000000000e+00
-2.220446049250313e-16 -4.996003610813204e-16 0.000000000000000e+00
-2.220446049250313e-16 -4.996003610813204e-16 0.000000000000000e+00
4.440892098500626e-16 5.551115123125783e-17 0.000000000000000e+00
2.220446049250313e-16 -2.220446049250313e-16 0.000000000000000e+00
0.000000000000000e+00 0.000000000000000e+00 0.000000000000000e+00
0.000000000000000e+00 0.000000000000000e+00 0.000000000000000e+00
5.551115123125783e-17 2.775557561562891e-16 0.000000000000000e+00
-1.110223024625157e-16 -1.665334536937735e-16 -3.552713678800501e-15
0.000000000000000e+00 3.330669073875470e-16 -3.552713678800501e-15
6.661338147750939e-16 -1.665334536937735e-16 0.000000000000000e+00
-1.110223024625157e-16 -1.665334536937735e-16 -3.552713678800501e-15
0.000000000000000e+00 0.000000000000000e+00 0.000000000000000e+00
5.551115123125783e-17 2.775557561562891e-16 0.000000000000000e+00
4.440892098500626e-16 5.551115123125783e-17 0.000000000000000e+00
0.000000000000000e+00 3.330669073875470e-16 -3.552713678800501e-15
-7.771561172376096e-16 3.330669073875470e-16 0.000000000000000e+00
6.661338147750939e-16 -1.665334536937735e-16 0.000000000000000e+00
4.440892098500626e-16 5.551115123125783e-17 0.000000000000000e+00
-2.220446049250313e-16 -4.996003610813204e-16 0.000000000000000e+00
4.440892098500626e-16 5.551115123125783e-17 0.000000000000000e+00
-7.771561172376096e-16 3.330669073875470e-16 0.000000000000000e+00
-4.440892098500626e-16 1.110223024625157e-16 0.000000000000000e+00
2.220446049250313e-16 -2.220446049250313e-16 0.000000000000000e+00
0.000000000000000e+00 -5.551115123125783e-17 0.000000000000000e+00
4.440892098500626e-16 -6.661338147750939e-16 0.000000000000000e+00
4.440892098500626e-16 5.551115123125783e-17 0.000000000000000e+00
6.661338147750939e-16 -1.665334536937735e-16 0.000000000000000e+00
0.000000000000000e+00 3.330669073875470e-16 -3.552713678800501e-15
4.440892098500626e-16 5.551115123125783e-17 0.000000000000000e+00
-4.440892098500626e-16 1.110223024625157e-16 0.000000000000000e+00
2.220446049250313e-16 -2.220446049250313e-16 0.000000000000000e+00
0.000000000000000e+00 3.330669073875470e-16 -3.552713678800501e-15
5.551115123125783e-17 2.775557561562891e-16 0.000000000000000e+00
-1.110223024625157e-16 4.440892098500626e-16 0.000000000000000e+00
0.000000000000000e+00 3.330669073875470e-16 -3.552713678800501e-15
-1.110223024625157e-16 -1.665334536937735e-16 -3.552713678800501e-15
5.551115123125783e-17 2.775557561562891e-16 0.000000000000000e+00
-1.110223024625157e-16 4.440892098500626e-16 0.000000000000000e+00
-7.771561172376096e-16 3.330669073875470e-16 0.000000000000000e+00
0.000000000000000e+00 3.330669073875470e-16 -3.552713678800501e-15
0.000000000000000e+00 0.000000000000000e+00 0.000000000000000e+00
-2.987641201113167e-05 5.915208317686105e-05 6.360523784820771e-05
-3.524718762226708e-05 2.290383951351060e-04 -2.542534749494507e-05
-2.706998757276424e-05 2.269533617194064e-05 4.037306733195578e-05
-1.310214391725406e-05 2.294252652550455e-04 2.054232076176277e-05
-4.243417221655443e-05 1.003109889428089e-04 3.507007999559164e-06
1.729560739340830e-04 4.556281091167014e-04 5.327749689598704e-05
-3.524718762226708e-05 2.290383951351060e-04 -2.542534749494507e-05
-2.987641201113167e-05 5.915208317686105e-05 6.360523784820771e-05
3.654604913572168e-05 3.250210915776153e-04 -8.211589037188105e-06
-1.310214391725406e-05 2.294252652550455e-04 2.054232076176277e-05
8.846792642391854e-05 3.476606085679457e-04 4.196951774915192e-05
1.729560739340830e-04 4.556281091167014e-04 5.327749689598704e-05
1.535560556811255e-04 5.365389409873744e-04 4.460279281204294e-05
-3.524718762226708e-05 2.290383951351060e-04 -2.542534749494507e-05
7.138682779117556e-05 3.882479378162218e-04 3.095845655565199e-05
5.799662642336223e-05 3.731946842894240e-04 2.727294962312499e-06
3.654604913572168e-05 3.250210915776153e-04 -8.211589037188105e-06
1.535560556811255e-04 5.365389409873744e-04 4.460279281204294e-05
1.729560739340830e-04 4.556281091167014e-04 5.327749689598704e-05
2.001705895695594e-04 2.487282284679981e-04 -1.084967845095264e-04
7.138682779117556e-05 3.882479378162218e-04 3.095845655565199e-05
1.531010698231361e-04 3.313273238003678e-04 7.559414090252403e-06
2.596340856342305e-05 3.017917738467601e-04 1.428807382097830e-05
2.001705895695594e-04 2.487282284679981e-04 -1.084967845095264e-04
6.451109577210179e-05 7.623371061993289e-05 9.688855709555355e-05
-7.951000869821367e-05 -2.254029983578265e-04 4.507428255351442e-05
1.906543565157737e-04 1.914241095893887e-04 2.410249226869610e-05
-1.566736767288912e-05 -1.003853479766281e-04 7.924603398379304e-05
1.192087264035857e-04 2.649512794000719e-05 -2.552854257942272e-05
1.729560739340830e-04 4.556281091167014e-04 5.327749689598704e-05
-2.987641201113167e-05 5.915208317686105e-05 6.360523784820771e-05
6.451109577210179e-05 7.623371061993289e-05 9.688855709555355e-05
8.846792642391854e-05 3.476606085679457e-04 4.196951774915192e-05
5.310820565307406e-05 1.014898645551598e-04 8.779757126831100e-05
3.496810639592729e-04 5.535180493194680e-04 1.047238868139289e-04
3.121074886829334e-04 3.527264978674094e-04 -1.804614498936985e-04
1.393767565398107e-03 1.274855347462074e-03 -1.060035548654525e-04
2.001705895695594e-04 2.487282284679981e-04 -1.084967845095264e-04
7.206698178801041e-04 7.052950025109134e-04 -1.585752337369684e-04
2.969569792493632e-04 4.707729144421413e-04 -5.783819934990220e-05
1.817540551634078e-04 2.750580094884048e-04 -1.185326334258718e-04
1.729560739340830e-04 4.556281091167014e-04 5.327749689598704e-05
6.451109577210179e-05 7.623371061993289e-05 9.688855709555355e-05
2.001705895695594e-04 2.487282284679981e-04 -1.084967845095264e-04
3.496810639592729e-04 5.535180493194680e-04 1.047238868139289e-04
1.906543565157737e-04 1.914241095893887e-04 2.410249226869610e-05
1.531010698231361e-04 3.313273238003678e-04 7.559414090252403e-06
-2.987641201113167e-05 5.915208317686105e-05 6.360523784820771e-05
-8.577099983120284e-05 -2.812251079139516e-04 -4.476905939299058e-05
6.451109577210179e-05 7.623371061993289e-05 9.688855709555355e-05
-2.022047607942445e-04 -3.980011284574481e-04 -1.478473460991836e-05
-1.121520628536432e-04 -2.357580061915776e-04 5.833612669192689e-05
5.310820565307406e-05 1.014898645551598e-04 8.779757126831100e-05
2.001705895695594e-04 2.487282284679981e-04 -1.084967845095264e-04
1.393767565398107e-03 1.274855347462074e-03 -1.060035548654525e-04
1.535560556811255e-04 5.365389409873744e-04 4.460279281204294e-05
2.969569792493632e-04 4.707729144421413e-04 -5.783819934990220e-05
5.887737671742554e-04 8.902988726881000e-04 3.902635217656325e-05
2.596340856342305e-05 3.017917738467601e-04 1.428807382097830e-05
-2.987641201113167e-05 5.915208317686105e-05 6.360523784820771e-05
0.000000000000000e+00 0.000000000000000e+00 0.000000000000000e+00
0.000000000000000e+00 0.000000000000000e+00 0.000000000000000e+00
-2.706998757276424e-05 2.269533617194064e-05 4.037306733195578e-05
0.000000000000000e+00 0.000000000000000e+00 0.000000000000000e+00
-2.615250229676125e-05 -1.091926415787148e-04 3.323780223141171e-05
6.451109577210179e-05 7.623371061993289e-05 9.688855709555355e-05
-8.577099983120284e-05 -2.812251079139516e-04 -4.476905939299058e-05
-7.951000869821367e-05 -2.254029983578265e-04 4.507428255351442e-05
-1.121520628536432e-04 -2.357580061915776e-04 5.833612669192689e-05
-1.361415631071505e-04 -2.656798450778597e-04 6.014482707072943e-05
-1.566736767288912e-05 -1.003853479766281e-04 7.924603398379304e-05
0.000000000000000e+00 0.000000000000000e+00 0.000000000000000e+00
-8.577099983120284e-05 -2.812251079139516e-04 -4.476905939299058e-05
0.000000000000000e+00 0.000000000000000e+00 0.000000000000000e+00
6.663134011475336e-05 -1.056164879859045e-04 1.445123982435348e-05
-8.177066115949705e-05 -3.296111244567301e-04 9.425222160075464e-06
0.000000000000000e+00 0.000000000000000e+00 0.000000000000000e+00
-2.987641201113167e-05 5.915208317686105e-05 6.360523784820771e-05
0.000000000000000e+00 0.000000000000000e+00 0.000000000000000e+00
-8.577099983120284e-05 -2.812251079139516e-04 -4.476905939299058e-05
-2.615250229676125e-05 -1.091926415787148e-04 3.323780223141171e-05
-8.177066115949705e-05 -3.296111244567301e-04 9.425222160075464e-06
-2.022047607942445e-04 -3.980011284574481e-04 -1.478473460991836e-05
4.440892098500626e-16 -6.161737786669619e-15 3.552713678800501e-15
4.440892098500626e-16 -6.994405055138486e-15 3.552713678800501e-15
1.332267629550188e-15 -7.438494264988549e-15 3.552713678800501e-15
4.440892098500626e-16 -6.605826996519681e-15 3.552713678800501e-15
8.881784197001252e-16 -7.105427357601002e-15 3.552713678800501e-15
8.881784197001252e-16 -6.772360450213455e-15 3.552713678800501e-15
4.440892098500626e-15 -9.048317650695026e-15 3.552713678800501e-15
4.440892098500626e-16 -6.994405055138486e-15 3.552713678800501e-15
4.440892098500626e-16 -6.161737786669619e-15 3.552713678800501e-15
1.332267629550188e-15 -7.938094626069869e-15 3.552713678800501e-15
4.440892098500626e-16 -6.605826996519681e-15 3.552713678800501e-15
1.554312234475219e-15 -6.772360450213455e-15 3.552713678800501e-15
4.440892098500626e-16 -6.161737786669619e-15 3.552713678800501e-15
1.332267629550188e-15 -7.438494264988549e-15 3.552713678800501e-15
1.332267629550188e-15 -6.106226635438361e-15 3.552713678800501e-15
8.881784197001252e-16 -6.772360450213455e-15 3.552713678800501e-15
1.554312234475219e-15 -6.827871601444713e-15 3.552713678800501e-15
1.110223024625157e-15 -6.217248937900877e-15 3.552713678800501e-15
2.220446049250313e-16 -4.385380947269368e-15 0.000000000000000e+00
-2.220446049250313e-16 -4.551914400963142e-15 0.000000000000000e+00
4.440892098500626e-16 -6.161737786669619e-15 3.552713678800501e-15
-4.440892098500626e-16 -4.662936703425657e-15 0.000000000000000e+00
2.220446049250313e-16 -5.717648576819556e-15 3.552713678800501e-15
4.440892098500626e-16 -5.495603971894525e-15 0.000000000000000e+00
1.443289932012704e-15 -3.386180225106727e-15 3.552713678800501e-15
4.996003610813204e-16 -9.436895709313831e-16 0.000000000000000e+00
0.000000000000000e+00 -2.164934898019055e-15 3.552713678800501e-15
8.881784197001252e-16 -2.164934898019055e-15 3.552713678800501e-15
4.440892098500626e-16 -1.609823385706477e-15 3.552713678800501e-15
5.551115123125783e-16 -2.775557561562891e-15 3.552713678800501e-15
1.776356839400250e-15 1.165734175856414e-15 7.105427357601002e-15
1.443289932012704e-15 -3.386180225106727e-15 3.552713678800501e-15
8.881784197001252e-16 -2.553512956637860e-15 3.552713678800501e-15
1.998401444325282e-15 -1.609823385706477e-15 7.105427357601002e-15
1.887379141862766e-15 -2.831068712794149e-15 3.552713678800501e-15
1.110223024625157e-15 -5.551115123125783e-17 3.552713678800501e-15
0.000000000000000e+00 0.000000000000000e+00 0.000000000000000e+00
0.000000000000000e+00 0.000000000000000e+00 0.000000000000000e+00
4.996003610813204e-16 -9.436895709313831e-16 0.000000000000000e+00
0.000000000000000e+00 0.000000000000000e+00 0.000000000000000e+00
2.775557561562891e-16 -3.330669073875470e-16 0.000000000000000e+00
2.220446049250313e-16 0.000000000000000e+00 0.000000000000000e+00
1.443289932012704e-15 -3.386180225106727e-15 3.552713678800501e-15
1.776356839400250e-15 1.165734175856414e-15 7.105427357601002e-15
4.996003610813204e-16 -9.436895709313831e-16 0.000000000000000e+00
1.998401444325282e-15 -1.609823385706477e-15 7.105427357601002e-15
6.661338147750939e-16 -7.216449660063518e-16 3.552713678800501e-15
8.881784197001252e-16 -2.164934898019055e-15 3.552713678800501e-15
1.332267629550188e-15 -6.106226635438361e-15 3.552713678800501e-15
2.220446049250313e-16 -4.385380947269368e-15 0.000000000000000e+00
4.440892098500626e-16 -6.161737786669619e-15 3.552713678800501e-15
1.110223024625157e-15 -5.384581669432009e-15 0.000000000000000e+00
4.440892098500626e-16 -5.495603971894525e-15 0.000000000000000e+00
1.110223024625157e-15 -6.217248937900877e-15 3.552713678800501e-15
1.776356839400250e-15 1.165734175856414e-15 7.105427357601002e-15
0.000000000000000e+00 0.000000000000000e+00 0.000000000000000e+00
4.996003610813204e-16 -9.436895709313831e-16 0.000000000000000e+00
1.665334536937735e-16 0.000000000000000e+00 0.000000000000000e+00
2.220446049250313e-16 0.000000000000000e+00 0.000000000000000e+00
6.661338147750939e-16 -7.216449660063518e-16 3.552713678800501e-15
2.220446049250313e-16 -4.385380947269368e-15 0.000000000000000e+00
1.443289932012704e-15 -3.386180225106727e-15 3.552713678800501e-15
4.440892098500626e-16 -3.330669073875470e-15 3.552713678800501e-15
9.992007221626409e-16 -3.663735981263017e-15 3.552713678800501e-15
6.661338147750939e-16 -3.608224830031759e-15 3.552713678800501e-15
0.000000000000000e+00 -3.719247132494274e-15 0.000000000000000e+00
0.000000000000000e+00 -2.164934898019055e-15 3.552713678800501e-15
4.440892098500626e-16 -3.330669073875470e-15 3.552713678800501e-15