<?xml version="1.0" ?> 
<!-- 
# vtk DataFile Version 3.0
-->
<VTKFile type="UnstructuredGrid" version="0.1" compressor="vtkZLibDataCompressor" byte_order="LittleEndian">
  <UnstructuredGrid>
    <FieldData>
      <DataArray type="Float64" Name="TIME" NumberOfTuples="1" format="ascii">
3.000000000000000e+00 
      </DataArray>
    </FieldData>

    <Piece NumberOfPoints="24" NumberOfCells="0" >
      <Points>
        <DataArray type="Float64" NumberOfComponents="3" format="ascii">
1.000000000000000e+00 0.000000000000000e+00 -7.079632679490000e-02
7.071067811870000e-01 7.071067811870000e-01 7.146018366030000e-01
9.229551825145283e-01 3.823005540599319e-01 3.219027549043411e-01
7.071067811870000e-01 7.071067811870000e-01 7.146018366030000e-01
0.000000000000000e+00 1.000000000000000e+00 1.500000000000000e+00
3.823005540591954e-01 9.229551825132056e-01 1.107300918301373e+00
1.000000000000000e-01 3.000000000000000e-01 2.500000000000000e+00
1.150000000000000e+00 3.000000000000000e-01 3.050000000000000e+00
6.250000000000000e-01 3.000000000000000e-01 2.775000000000000e+00
1.150000000000000e+00 3.000000000000000e-01 3.050000000000000e+00
2.200000000000000e+00 3.000000000000000e-01 3.600000000000000e+00
1.675000000000000e+00 3.000000000000000e-01 3.325000000000000e+00
1.000000000000000e+00 0.000000000000000e+00 4.929203673210000e+00
7.071067811870000e-01 7.071067811870000e-01 5.714601836600000e+00
9.229551825141720e-01 3.823005540597842e-01 5.321902754905291e+00
7.071067811870000e-01 7.071067811870000e-01 5.714601836600000e+00
0.000000000000000e+00 1.000000000000000e+00 6.500000000000000e+00
3.823005540592515e-01 9.229551825133410e-01 6.107300918299872e+00
1.000000000000000e-01 3.000000000000000e-01 7.500000000000000e+00
1.150000000000000e+00 3.000000000000000e-01 8.050000000000001e+00
6.250000000000000e-01 3.000000000000000e-01 7.775000000000000e+00
1.150000000000000e+00 3.000000000000000e-01 8.050000000000001e+00
2.200000000000000e+00 3.000000000000000e-01 8.600000000000000e+00
1.675000000000000e+00 3.000000000000000e-01 8.324999999999999e+00
        </DataArray>
      </Points>

      <Cells>
        <DataArray type="Int32" Name="connectivity" format="ascii">

        </DataArray>
        <DataArray type="Int32" Name="offsets" format="ascii">

        </DataArray>
        <DataArray type="UInt8" Name="types" format="ascii">

        </DataArray>
      </Cells>

  <PointData>
        <DataArray type="Float64" Name="displacement" NumberOfComponents="3" format="ascii">
3.282806679948145e-01 2.706090852537372e-01 4.074909348015414e-02
-1.531404282810289e-03 7.756542485352713e-02 -6.744620974829640e-03
9.219610956755475e-02 1.760987502427904e-01 4.548172538423323e-04
-1.531404282810289e-03 7.756542485352713e-02 -6.744620974829640e-03
0.000000000000000e+00 0.000000000000000e+00 0.000000000000000e+00
-2.088341110260850e-02 9.565873928112478e-03 -7.360320801050202e-03
0.000000000000000e+00 0.000000000000000e+00 0.000000000000000e+00
-7.790880589206806e-02 2.594081436903523e-01 1.850868867794908e-02
-2.312135486096112e-02 7.062940911449689e-02 7.057749296627946e-03
-7.790880589206806e-02 2.594081436903523e-01 1.850868867794908e-02
-2.658373876623337e-01 8.787509977899590e-01 -3.008255209387434e-02
-1.544628363651062e-01 5.281576515464148e-01 9.088703244739538e-03
4.119715746087933e-01 3.753854152970661e-01 5.038128555517396e-02
1.572029743769232e-02 1.181854818329203e-01 -5.838122888502717e-03
1.329215196519684e-01 2.411022044453313e-01 3.655058748469386e-03
1.572029743769232e-02 1.181854818329203e-01 -5.838122888502717e-03
0.000000000000000e+00 0.000000000000000e+00 0.000000000000000e+00
-1.065413466322901e-02 3.012795075131613e-02 -1.984828369009151e-03
0.000000000000000e+00 0.000000000000000e+00 0.000000000000000e+00
-1.503076804456986e-01 3.793980746713440e-01 4.730083356017900e-02
-4.813552512951924e-02 1.144916879583189e-01 1.803003025049765e-02
-1.503076804456986e-01 3.793980746713440e-01 4.730083356017900e-02
-4.680679182381784e-01 1.151102978634267e+00 -4.753651707899209e-03
-2.883966857028106e-01 7.257363932614922e-01 4.245919317945912e-02
        </DataArray>
        <DataArray type="Float64" Name="lambda" NumberOfComponents="3" format="ascii">
7.669251562852970e-02 2.857237790499125e-02 -2.978555234929550e-03
1.352668187402847e-02 3.288235909175783e-02 2.524784720035225e-03
2.081553219713034e-04 -1.438651804351072e-02 -6.832674227073872e-03
1.352668187402847e-02 3.288235909175783e-02 2.524784720035225e-03
6.449717881136074e-02 1.380926451902792e-01 2.637526570094023e-02
-3.692530833241364e-03 -1.071246273047344e-02 3.489355090005089e-04
-1.247561232405036e-02 -2.406226382388458e-02 -5.771527098546871e-03
-1.196435495245963e-03 -7.659608708960325e-03 -5.272739314615148e-04
2.205291832570514e-03 2.545910341750870e-03 1.142576727508456e-03
-1.196435495245963e-03 -7.659608708960325e-03 -5.272739314615148e-04
-1.728956843462308e-02 1.721838630180602e-02 -8.531868750901046e-03
6.705427027229204e-03 6.310624289679206e-03 3.788238119797886e-03
6.105450351084152e-02 7.255600982413944e-03 4.130085483216960e-03
6.776231151737207e-03 6.700502374135293e-03 -1.280897682213739e-04
2.759246681940583e-03 -5.155123712935994e-03 -6.034639243134569e-03
6.776231151737207e-03 6.700502374135293e-03 -1.280897682213739e-04
7.958740391635029e-03 1.024270106587920e-02 4.164400696072989e-03
-1.361639642434625e-03 -8.907652767061629e-04 2.213620619067748e-05
-2.048209592201926e-03 7.809032898363611e-04 1.033821076790004e-03
1.948218079937671e-03 4.952579091703021e-03 5.021983258410926e-03
2.556868677933405e-03 -3.825748147902484e-03 -6.643630884570673e-04
1.948218079937671e-03 4.952579091703021e-03 5.021983258410926e-03
-1.680015047375021e-02 3.168854341828007e-02 -1.357749884420033e-03
5.412476575265520e-03 3.294253289349367e-03 2.086318214352103e-03
        </DataArray>
        <DataArray type="Int32" Name="uid_0_pair_beam_id" format="ascii">
267
267
267
268
268
268
269
269
269
270
270
270
271
271
271
272
272
272
273
273
273
274
274
274
        </DataArray>
      </PointData>

    </Piece>
  </UnstructuredGrid>
</VTKFile>
