<?xml version="1.0" ?> 
<!-- 
# vtk DataFile Version 3.0
-->
<VTKFile type="UnstructuredGrid" version="0.1" compressor="vtkZLibDataCompressor" byte_order="LittleEndian">
  <UnstructuredGrid>
    <FieldData>
      <DataArray type="Float64" Name="TIME" NumberOfTuples="1" format="ascii">
3.000000000000000e+00 
      </DataArray>
    </FieldData>

    <Piece NumberOfPoints="561" NumberOfCells="0" >
      <Points>
        <DataArray type="Float64" NumberOfComponents="3" format="ascii">
5.000000000000000e-01 8.660254037839999e-01 1.000000000000000e+00
0.000000000000000e+00 1.000000000000000e+00 1.000000000000000e+00
0.000000000000000e+00 1.000000000000000e+00 1.500000000000000e+00
5.000000000000000e-01 8.660254037839999e-01 1.500000000000000e+00
8.660254037839999e-01 5.000000000000000e-01 1.000000000000000e+00
5.000000000000000e-01 8.660254037839999e-01 1.000000000000000e+00
5.000000000000000e-01 8.660254037839999e-01 1.500000000000000e+00
8.660254037839999e-01 5.000000000000000e-01 1.500000000000000e+00
5.000000000000000e-01 8.660254037839999e-01 5.000000000000000e-01
0.000000000000000e+00 1.000000000000000e+00 5.000000000000000e-01
0.000000000000000e+00 1.000000000000000e+00 1.000000000000000e+00
5.000000000000000e-01 8.660254037839999e-01 1.000000000000000e+00
8.660254037839999e-01 5.000000000000000e-01 5.000000000000000e-01
5.000000000000000e-01 8.660254037839999e-01 5.000000000000000e-01
5.000000000000000e-01 8.660254037839999e-01 1.000000000000000e+00
8.660254037839999e-01 5.000000000000000e-01 1.000000000000000e+00
1.000000000000000e+00 0.000000000000000e+00 5.000000000000000e-01
8.660254037839999e-01 5.000000000000000e-01 5.000000000000000e-01
8.660254037839999e-01 5.000000000000000e-01 1.000000000000000e+00
1.000000000000000e+00 0.000000000000000e+00 1.000000000000000e+00
8.660254037839999e-01 5.000000000000000e-01 0.000000000000000e+00
5.000000000000000e-01 8.660254037839999e-01 0.000000000000000e+00
5.000000000000000e-01 8.660254037839999e-01 5.000000000000000e-01
8.660254037839999e-01 5.000000000000000e-01 5.000000000000000e-01
1.000000000000000e+00 0.000000000000000e+00 0.000000000000000e+00
8.660254037839999e-01 5.000000000000000e-01 0.000000000000000e+00
8.660254037839999e-01 5.000000000000000e-01 5.000000000000000e-01
1.000000000000000e+00 0.000000000000000e+00 5.000000000000000e-01
1.500000000000000e+00 3.000000000000000e-01 2.500000000000000e+00
1.500000000000000e+00 3.000000000000000e-01 3.000000000000000e+00
2.000000000000000e+00 3.000000000000000e-01 3.000000000000000e+00
2.000000000000000e+00 3.000000000000000e-01 2.500000000000000e+00
1.500000000000000e+00 3.000000000000000e-01 3.000000000000000e+00
1.500000000000000e+00 3.000000000000000e-01 3.500000000000000e+00
2.000000000000000e+00 3.000000000000000e-01 3.500000000000000e+00
2.000000000000000e+00 3.000000000000000e-01 3.000000000000000e+00
1.000000000000000e+00 3.000000000000000e-01 2.500000000000000e+00
1.000000000000000e+00 3.000000000000000e-01 3.000000000000000e+00
1.500000000000000e+00 3.000000000000000e-01 3.000000000000000e+00
1.500000000000000e+00 3.000000000000000e-01 2.500000000000000e+00
1.000000000000000e+00 3.000000000000000e-01 3.000000000000000e+00
1.000000000000000e+00 3.000000000000000e-01 3.500000000000000e+00
1.500000000000000e+00 3.000000000000000e-01 3.500000000000000e+00
1.500000000000000e+00 3.000000000000000e-01 3.000000000000000e+00
5.000000000000000e-01 3.000000000000000e-01 2.500000000000000e+00
5.000000000000000e-01 3.000000000000000e-01 3.000000000000000e+00
1.000000000000000e+00 3.000000000000000e-01 3.000000000000000e+00
1.000000000000000e+00 3.000000000000000e-01 2.500000000000000e+00
5.000000000000000e-01 3.000000000000000e-01 3.000000000000000e+00
5.000000000000000e-01 3.000000000000000e-01 3.500000000000000e+00
1.000000000000000e+00 3.000000000000000e-01 3.500000000000000e+00
1.000000000000000e+00 3.000000000000000e-01 3.000000000000000e+00
0.000000000000000e+00 3.000000000000000e-01 2.500000000000000e+00
0.000000000000000e+00 3.000000000000000e-01 3.000000000000000e+00
5.000000000000000e-01 3.000000000000000e-01 3.000000000000000e+00
5.000000000000000e-01 3.000000000000000e-01 2.500000000000000e+00
0.000000000000000e+00 3.000000000000000e-01 3.000000000000000e+00
0.000000000000000e+00 3.000000000000000e-01 3.500000000000000e+00
5.000000000000000e-01 3.000000000000000e-01 3.500000000000000e+00
5.000000000000000e-01 3.000000000000000e-01 3.000000000000000e+00
5.000000000000000e-01 8.660254037839999e-01 6.000000000000000e+00
0.000000000000000e+00 1.000000000000000e+00 6.000000000000000e+00
0.000000000000000e+00 1.000000000000000e+00 6.500000000000000e+00
5.000000000000000e-01 8.660254037839999e-01 6.500000000000000e+00
2.588190451030000e-01 9.659258262890000e-01 6.000000000000000e+00
0.000000000000000e+00 1.000000000000000e+00 6.250000000000000e+00
2.588190451030000e-01 9.659258262890000e-01 6.500000000000000e+00
5.000000000000000e-01 8.660254037839999e-01 6.250000000000000e+00
8.660254037839999e-01 5.000000000000000e-01 6.000000000000000e+00
5.000000000000000e-01 8.660254037839999e-01 6.000000000000000e+00
5.000000000000000e-01 8.660254037839999e-01 6.500000000000000e+00
8.660254037839999e-01 5.000000000000000e-01 6.500000000000000e+00
7.071067811870000e-01 7.071067811870000e-01 6.000000000000000e+00
5.000000000000000e-01 8.660254037839999e-01 6.250000000000000e+00
7.071067811870000e-01 7.071067811870000e-01 6.500000000000000e+00
8.660254037839999e-01 5.000000000000000e-01 6.250000000000000e+00
5.000000000000000e-01 8.660254037839999e-01 5.500000000000000e+00
0.000000000000000e+00 1.000000000000000e+00 5.500000000000000e+00
0.000000000000000e+00 1.000000000000000e+00 6.000000000000000e+00
5.000000000000000e-01 8.660254037839999e-01 6.000000000000000e+00
2.588190451030000e-01 9.659258262890000e-01 5.500000000000000e+00
0.000000000000000e+00 1.000000000000000e+00 5.750000000000000e+00
2.588190451030000e-01 9.659258262890000e-01 6.000000000000000e+00
5.000000000000000e-01 8.660254037839999e-01 5.750000000000000e+00
8.660254037839999e-01 5.000000000000000e-01 5.500000000000000e+00
5.000000000000000e-01 8.660254037839999e-01 5.500000000000000e+00
5.000000000000000e-01 8.660254037839999e-01 6.000000000000000e+00
8.660254037839999e-01 5.000000000000000e-01 6.000000000000000e+00
7.071067811870000e-01 7.071067811870000e-01 5.500000000000000e+00
5.000000000000000e-01 8.660254037839999e-01 5.750000000000000e+00
7.071067811870000e-01 7.071067811870000e-01 6.000000000000000e+00
8.660254037839999e-01 5.000000000000000e-01 5.750000000000000e+00
1.000000000000000e+00 0.000000000000000e+00 5.500000000000000e+00
8.660254037839999e-01 5.000000000000000e-01 5.500000000000000e+00
8.660254037839999e-01 5.000000000000000e-01 6.000000000000000e+00
1.000000000000000e+00 0.000000000000000e+00 6.000000000000000e+00
9.659258262890000e-01 2.588190451030000e-01 5.500000000000000e+00
8.660254037839999e-01 5.000000000000000e-01 5.750000000000000e+00
9.659258262890000e-01 2.588190451030000e-01 6.000000000000000e+00
1.000000000000000e+00 0.000000000000000e+00 5.750000000000000e+00
8.660254037839999e-01 5.000000000000000e-01 5.000000000000000e+00
5.000000000000000e-01 8.660254037839999e-01 5.000000000000000e+00
5.000000000000000e-01 8.660254037839999e-01 5.500000000000000e+00
8.660254037839999e-01 5.000000000000000e-01 5.500000000000000e+00
7.071067811870000e-01 7.071067811870000e-01 5.000000000000000e+00
5.000000000000000e-01 8.660254037839999e-01 5.250000000000000e+00
7.071067811870000e-01 7.071067811870000e-01 5.500000000000000e+00
8.660254037839999e-01 5.000000000000000e-01 5.250000000000000e+00
1.000000000000000e+00 0.000000000000000e+00 5.000000000000000e+00
8.660254037839999e-01 5.000000000000000e-01 5.000000000000000e+00
8.660254037839999e-01 5.000000000000000e-01 5.500000000000000e+00
1.000000000000000e+00 0.000000000000000e+00 5.500000000000000e+00
9.659258262890000e-01 2.588190451030000e-01 5.000000000000000e+00
8.660254037839999e-01 5.000000000000000e-01 5.250000000000000e+00
9.659258262890000e-01 2.588190451030000e-01 5.500000000000000e+00
1.000000000000000e+00 0.000000000000000e+00 5.250000000000000e+00
1.500000000000000e+00 3.000000000000000e-01 7.500000000000000e+00
1.500000000000000e+00 3.000000000000000e-01 8.000000000000000e+00
2.000000000000000e+00 3.000000000000000e-01 8.000000000000000e+00
2.000000000000000e+00 3.000000000000000e-01 7.500000000000000e+00
1.500000000000000e+00 3.000000000000000e-01 7.750000000000000e+00
1.750000000000000e+00 3.000000000000000e-01 8.000000000000000e+00
2.000000000000000e+00 3.000000000000000e-01 7.750000000000000e+00
1.750000000000000e+00 3.000000000000000e-01 7.500000000000000e+00
1.500000000000000e+00 3.000000000000000e-01 8.000000000000000e+00
1.500000000000000e+00 3.000000000000000e-01 8.500000000000000e+00
2.000000000000000e+00 3.000000000000000e-01 8.500000000000000e+00
2.000000000000000e+00 3.000000000000000e-01 8.000000000000000e+00
1.500000000000000e+00 3.000000000000000e-01 8.250000000000000e+00
1.750000000000000e+00 3.000000000000000e-01 8.500000000000000e+00
2.000000000000000e+00 3.000000000000000e-01 8.250000000000000e+00
1.750000000000000e+00 3.000000000000000e-01 8.000000000000000e+00
1.000000000000000e+00 3.000000000000000e-01 7.500000000000000e+00
1.000000000000000e+00 3.000000000000000e-01 8.000000000000000e+00
1.500000000000000e+00 3.000000000000000e-01 8.000000000000000e+00
1.500000000000000e+00 3.000000000000000e-01 7.500000000000000e+00
1.000000000000000e+00 3.000000000000000e-01 7.750000000000000e+00
1.250000000000000e+00 3.000000000000000e-01 8.000000000000000e+00
1.500000000000000e+00 3.000000000000000e-01 7.750000000000000e+00
1.250000000000000e+00 3.000000000000000e-01 7.500000000000000e+00
1.000000000000000e+00 3.000000000000000e-01 8.000000000000000e+00
1.000000000000000e+00 3.000000000000000e-01 8.500000000000000e+00
1.500000000000000e+00 3.000000000000000e-01 8.500000000000000e+00
1.500000000000000e+00 3.000000000000000e-01 8.000000000000000e+00
[...]
  <PointData>
        <DataArray type="Int32" Name="coupling_id" format="ascii">
1
1
1
1
1
1
1
1
1
1
1
1
1
1
1
1
1
1
1
1
1
1
1
1
1
1
1
1
2
2
2
2
2
2
2
2
2
2
2
2
2
2
2
2
2
2
2
2
2
2
2
2
2
2
2
2
2
2
2
2
3
3
3
3
3
3
3
3
3
3
3
3
3
3
3
3
3
3
3
3
3
3
3
3
3
3
3
3
3
3
3
3
3
3
3
3
3
3
3
3
3
3
3
3
3
3
3
3
3
3
3
3
3
3
3
3
4
4
4
4
4
4
4
4
4
4
4
4
4
4
4
4
4
4
4
4
4
4
4
4
4
4
4
4
4
4
4
4
4
4
4
4
4
4
4
4
4
4
4
4
4
4
4
4
4
4
4
4
4
4
4
4
4
4
4
4
4
4
4
4
5
5
5
5
5
5
5
5
5
5
5
5
5
5
5
5
5
5
5
5
5
5
5
5
5
5
5
5
5
5
5
5
5
5
5
5
5
5
5
5
5
5
5
5
5
5
5
5
5
5
5
5
5
5
5
5
5
5
5
5
5
5
5
6
6
6
6
6
6
6
6
6
6
6
6
6
6
6
6
6
6
6
6
6
6
6
6
6
6
6
6
6
6
6
6
6
6
6
6
6
6
6
6
6
6
6
6
6
6
6
6
6
6
6
6
6
6
6
6
6
6
6
6
6
6
6
6
6
6
6
6
6
6
6
6
7
7
7
7
7
7
7
7
7
7
7
7
7
7
7
7
7
7
7
7
7
7
7
7
7
7
7
7
7
7
7
7
7
7
7
7
7
7
7
7
7
7
8
8
8
8
8
8
8
8
8
8
8
8
8
8
8
8
8
8
8
8
8
8
8
8
8
8
8
8
8
8
8
8
8
8
8
8
8
8
8
8
8
8
8
8
8
8
8
8
9
9
9
9
9
9
9
9
9
9
9
9
9
9
9
9
9
9
9
9
9
9
9
9
9
9
9
9
9
9
9
9
9
9
9
9
9
9
9
9
9
9
9
9
9
9
9
9
9
9
9
9
9
9
9
9
9
9
9
9
9
9
9
9
9
9
9
9
9
9
9
9
10
10
10
10
10
10
10
10
10
10
10
10
10
10
10
10
10
10
10
10
10
10
10
10
10
10
10
10
10
10
10
10
10
10
10
10
10
10
10
10
10
10
10
10
10
10
10
10
10
10
10
10
10
10
10
10
10
10
10
10
10
10
10
10
10
10
10
10
10
10
10
10
10
10
10
10
10
10
10
10
10
10
10
10
        </DataArray>
        <DataArray type="Float64" Name="displacement" NumberOfComponents="3" format="ascii">
-1.787595007732129e-02 3.718189263244498e-02 -9.880670016582327e-03
0.000000000000000e+00 0.000000000000000e+00 0.000000000000000e+00
0.000000000000000e+00 0.000000000000000e+00 0.000000000000000e+00
-8.823394735384960e-04 7.149604546698518e-02 -1.073193161999164e-02
4.378309358412702e-02 1.382995859510276e-01 -1.241252791513436e-03
-1.787595007732129e-02 3.718189263244498e-02 -9.880670016582327e-03
-8.823394735384960e-04 7.149604546698518e-02 -1.073193161999164e-02
3.191047598436159e-02 1.077175692255201e-01 -8.391491755392888e-04
-9.783146329417625e-03 4.936484972242283e-02 -7.883951317226190e-03
0.000000000000000e+00 0.000000000000000e+00 0.000000000000000e+00
0.000000000000000e+00 0.000000000000000e+00 0.000000000000000e+00
-1.787595007732129e-02 3.718189263244498e-02 -9.880670016582327e-03
5.770987728469046e-02 1.542953226035340e-01 -5.460710161910354e-03
-9.783146329417625e-03 4.936484972242283e-02 -7.883951317226190e-03
-1.787595007732129e-02 3.718189263244498e-02 -9.880670016582327e-03
4.378309358412702e-02 1.382995859510276e-01 -1.241252791513436e-03
2.040372764375336e-01 2.233789133117220e-01 1.375124538256600e-02
5.770987728469046e-02 1.542953226035340e-01 -5.460710161910354e-03
4.378309358412702e-02 1.382995859510276e-01 -1.241252791513436e-03
1.468607405545037e-01 1.749738534725060e-01 9.235517072399002e-04
8.209969311477472e-02 1.703442296782617e-01 -6.986038520476548e-04
-1.227613910547753e-02 3.806658461817791e-02 -1.148625098063098e-02
-9.783146329417625e-03 4.936484972242283e-02 -7.883951317226190e-03
5.770987728469046e-02 1.542953226035340e-01 -5.460710161910354e-03
3.228033849769572e-01 2.906951044012123e-01 2.660729989646209e-02
8.209969311477472e-02 1.703442296782617e-01 -6.986038520476548e-04
5.770987728469046e-02 1.542953226035340e-01 -5.460710161910354e-03
2.040372764375336e-01 2.233789133117220e-01 1.375124538256600e-02
-5.095280504953537e-02 2.868586836080942e-01 3.083140460623879e-02
-1.025288386115408e-01 3.840702160078901e-01 2.141564838294796e-02
-1.509349730753033e-01 5.894899056340248e-01 1.272155452944101e-02
-8.641489209560271e-02 4.665151357778558e-01 3.326682011359816e-02
-1.025288386115408e-01 3.840702160078901e-01 2.141564838294796e-02
-1.529125496420582e-01 4.803016146485244e-01 1.097449319696731e-02
-2.153200226872511e-01 7.320785820027178e-01 -1.043940600384952e-02
-1.509349730753033e-01 5.894899056340248e-01 1.272155452944101e-02
-1.992441473662643e-02 1.325082584985136e-01 2.287267036668483e-02
-6.064099399172040e-02 1.956896709781153e-01 1.740615924373579e-02
-1.025288386115408e-01 3.840702160078901e-01 2.141564838294796e-02
-5.095280504953537e-02 2.868586836080942e-01 3.083140460623879e-02
-6.064099399172040e-02 1.956896709781153e-01 1.740615924373579e-02
-1.058430174078595e-01 2.531199628751723e-01 1.207495723581697e-02
-1.529125496420582e-01 4.803016146485244e-01 1.097449319696731e-02
-1.025288386115408e-01 3.840702160078901e-01 2.141564838294796e-02
-2.600966505232338e-03 9.169453958490059e-03 3.406764764801729e-04
-2.915463289255221e-02 6.377311270805891e-02 4.014489638241692e-03
-6.064099399172040e-02 1.956896709781153e-01 1.740615924373579e-02
-1.992441473662643e-02 1.325082584985136e-01 2.287267036668483e-02
-2.915463289255221e-02 6.377311270805891e-02 4.014489638241692e-03
-5.517901373894496e-02 7.885528858648283e-02 1.291894373681846e-02
-1.058430174078595e-01 2.531199628751723e-01 1.207495723581697e-02
-6.064099399172040e-02 1.956896709781153e-01 1.740615924373579e-02
0.000000000000000e+00 0.000000000000000e+00 0.000000000000000e+00
0.000000000000000e+00 0.000000000000000e+00 0.000000000000000e+00
-2.915463289255221e-02 6.377311270805891e-02 4.014489638241692e-03
-2.600966505232338e-03 9.169453958490059e-03 3.406764764801729e-04
0.000000000000000e+00 0.000000000000000e+00 0.000000000000000e+00
0.000000000000000e+00 0.000000000000000e+00 0.000000000000000e+00
-5.517901373894496e-02 7.885528858648283e-02 1.291894373681846e-02
-2.915463289255221e-02 6.377311270805891e-02 4.014489638241692e-03
-1.055631799593726e-02 5.147126147359715e-02 -3.932777395651676e-03
0.000000000000000e+00 0.000000000000000e+00 0.000000000000000e+00
0.000000000000000e+00 0.000000000000000e+00 0.000000000000000e+00
-9.099331752911277e-03 2.797602679632150e-02 6.779091965283257e-04
-1.130383876274127e-02 1.434571156146214e-02 -2.799765665061571e-03
0.000000000000000e+00 0.000000000000000e+00 0.000000000000000e+00
-5.368186519456530e-03 8.008710408621944e-03 2.413532498760418e-03
-9.365076244164716e-03 4.214972268944883e-02 -1.525330577795359e-03
5.298517305067618e-02 1.499551477648055e-01 -3.504413904682480e-04
-1.055631799593726e-02 5.147126147359715e-02 -3.932777395651676e-03
-9.099331752911277e-03 2.797602679632150e-02 6.779091965283257e-04
3.332059328308079e-02 1.055261229176794e-01 -1.724473358565071e-03
1.164739585563179e-02 1.016530687345718e-01 -2.290165633962893e-03
-9.365076244164716e-03 4.214972268944883e-02 -1.525330577795359e-03
2.111598039005513e-03 6.540377762214800e-02 5.115971242171113e-04
4.428142869878104e-02 1.267409790301257e-01 -1.228024160207397e-03
-8.879906139646343e-03 6.107661977385170e-02 -6.434441037511007e-03
0.000000000000000e+00 0.000000000000000e+00 0.000000000000000e+00
0.000000000000000e+00 0.000000000000000e+00 0.000000000000000e+00
-1.055631799593726e-02 5.147126147359715e-02 -3.932777395651676e-03
-1.057730991298164e-02 1.500595655322101e-02 -4.755040401893673e-03
0.000000000000000e+00 0.000000000000000e+00 0.000000000000000e+00
-1.130383876274127e-02 1.434571156146214e-02 -2.799765665061571e-03
-8.345869904653691e-03 5.880584205092731e-02 -6.178390017469226e-03
7.289068482117189e-02 1.915743874987965e-01 -5.971358415064465e-03
-8.879906139646343e-03 6.107661977385170e-02 -6.434441037511007e-03
-1.055631799593726e-02 5.147126147359715e-02 -3.932777395651676e-03
5.298517305067618e-02 1.499551477648055e-01 -3.504413904682480e-04
1.827160182819676e-02 1.268485300705762e-01 -7.036715533564220e-03
-8.345869904653691e-03 5.880584205092731e-02 -6.178390017469226e-03
1.164739585563179e-02 1.016530687345718e-01 -2.290165633962893e-03
6.355212484511330e-02 1.737471294519264e-01 -2.267251671511872e-03
2.490922719103326e-01 2.808188646900166e-01 7.396791495859034e-03
7.289068482117189e-02 1.915743874987965e-01 -5.971358415064465e-03
5.298517305067618e-02 1.499551477648055e-01 -3.504413904682480e-04
1.847579813669971e-01 2.092539648070508e-01 -1.591355941613593e-02
1.553332301636006e-01 2.487489845226435e-01 7.765353001042641e-03
6.355212484511330e-02 1.737471294519264e-01 -2.267251671511872e-03
1.128077741718596e-01 1.881758381283338e-01 -2.684706061691244e-03
2.116013261950382e-01 2.418551353970526e-01 -5.518279408758708e-03
1.022741406821415e-01 2.380798153284530e-01 9.135355547625679e-03
-9.340131791498785e-03 6.120130835556492e-02 -9.298777620251997e-03
-8.879906139646343e-03 6.107661977385170e-02 -6.434441037511007e-03
7.289068482117189e-02 1.915743874987965e-01 -5.971358415064465e-03
2.205002322183869e-02 1.442289039186720e-01 -3.457350324453046e-03
-8.635039592631732e-03 6.361148192959565e-02 -6.221325896171415e-03
1.827160182819676e-02 1.268485300705762e-01 -7.036715533564220e-03
9.070743721009367e-02 2.148284470433398e-01 -3.199832956388704e-04
3.713125019683861e-01 3.525668146493425e-01 3.661406225943509e-02
1.022741406821415e-01 2.380798153284530e-01 9.135355547625679e-03
7.289068482117189e-02 1.915743874987965e-01 -5.971358415064465e-03
2.490922719103326e-01 2.808188646900166e-01 7.396791495859034e-03
2.418619044969992e-01 3.111183131395469e-01 2.516429489989136e-02
9.070743721009367e-02 2.148284470433398e-01 -3.199832956388704e-04
1.553332301636006e-01 2.487489845226435e-01 7.765353001042641e-03
3.003724875008038e-01 3.166890342543326e-01 1.757514512013270e-02
-1.532365409899807e-01 4.960441957246747e-01 5.505019452400006e-02
-2.128256217884714e-01 5.673970758843678e-01 5.076842255749092e-02
-3.162580925501541e-01 8.648307898990228e-01 4.170096344144625e-02
-2.474327415514117e-01 7.788192011113186e-01 5.760634104953066e-02
-1.844333851905393e-01 5.325383406975934e-01 5.186224752173452e-02
-2.657421176135850e-01 7.148049322850247e-01 4.586121310424218e-02
-2.800052058399656e-01 8.208298447127786e-01 5.104997973475367e-02
-1.994510400390908e-01 6.351265242366095e-01 5.694827769155175e-02
-2.128256217884714e-01 5.673970758843678e-01 5.076842255749092e-02
-2.743507574392769e-01 6.313374367462758e-01 4.271009388459746e-02
-3.934235487595557e-01 9.831163899026090e-01 1.833368042328587e-02
-3.162580925501541e-01 8.648307898990228e-01 4.170096344144625e-02
-2.392221977165221e-01 6.021353191088674e-01 4.936063876459329e-02
-3.315327488562081e-01 8.090750159289104e-01 3.265321622644812e-02
-3.555719485285933e-01 9.167728233133616e-01 3.147540058820475e-02
-2.657421176135850e-01 7.148049322850247e-01 4.586121310424218e-02
-6.891968689174977e-02 2.426807152769202e-01 4.033807962167568e-02
-1.194910200565007e-01 2.974169225640774e-01 4.142002932815458e-02
-2.128256217884714e-01 5.673970758843678e-01 5.076842255749092e-02
-1.532365409899807e-01 4.960441957246747e-01 5.505019452400006e-02
-9.708771345900402e-02 2.705716955102112e-01 4.002368499978548e-02
-1.626637437554823e-01 4.288883814804310e-01 5.024690866447656e-02
-1.844333851905393e-01 5.325383406975934e-01 5.186224752173452e-02
-1.093216856461618e-01 3.643885486923673e-01 4.969088139107658e-02
-1.194910200565007e-01 2.974169225640774e-01 4.142002932815458e-02
-1.721352232109323e-01 3.259420225419011e-01 3.748004407808558e-02
-2.743507574392769e-01 6.313374367462758e-01 4.271009388459746e-02
-2.128256217884714e-01 5.673970758843678e-01 5.076842255749092e-02
-1.477417837786688e-01 3.139613126951675e-01 3.895207937890000e-02
-2.215734978156834e-01 4.723387783486504e-01 4.289740372207795e-02
-2.392221977165221e-01 6.021353191088674e-01 4.936063876459329e-02
-1.626637437554823e-01 4.288883814804310e-01 5.024690866447656e-02
-1.229207770731400e-02 5.157775548573468e-02 1.035388182882802e-02
-5.258276658081140e-02 8.902457448370016e-02 1.393232887514273e-02
-1.194910200565007e-01 2.974169225640774e-01 4.142002932815458e-02
-6.891968689174977e-02 2.426807152769202e-01 4.033807962167568e-02
-3.311007952729178e-02 7.378254933303824e-02 1.135641873386284e-02
-8.298866057124377e-02 1.803041091215480e-01 2.675474689481661e-02
-9.708771345900402e-02 2.705716955102112e-01 4.002368499978548e-02
-3.504831635275329e-02 1.351486313496582e-01 2.558533885878767e-02
-5.258276658081140e-02 8.902457448370016e-02 1.393232887514273e-02
-8.199982029094244e-02 9.226007093823024e-02 2.293438230850775e-02
-1.721352232109323e-01 3.259420225419011e-01 3.748004407808558e-02
-1.194910200565007e-01 2.974169225640774e-01 4.142002932815458e-02
-6.881393697526900e-02 9.601477805178155e-02 1.695424928262490e-02
-1.259835543467621e-01 1.978369736357035e-01 3.101194713838673e-02
-1.477417837786688e-01 3.139613126951675e-01 3.895207937890000e-02
-8.298866057124377e-02 1.803041091215480e-01 2.675474689481661e-02
0.000000000000000e+00 0.000000000000000e+00 0.000000000000000e+00
0.000000000000000e+00 0.000000000000000e+00 0.000000000000000e+00
-5.258276658081140e-02 8.902457448370016e-02 1.393232887514273e-02
-1.229207770731400e-02 5.157775548573468e-02 1.035388182882802e-02
0.000000000000000e+00 0.000000000000000e+00 0.000000000000000e+00
-2.582932005293759e-02 2.878672198150667e-02 3.606219920625264e-03
-3.311007952729178e-02 7.378254933303824e-02 1.135641873386284e-02
-2.944578665195818e-03 5.824661200150127e-03 6.376129141800746e-04
0.000000000000000e+00 0.000000000000000e+00 0.000000000000000e+00
0.000000000000000e+00 0.000000000000000e+00 0.000000000000000e+00
-8.199982029094244e-02 9.226007093823024e-02 2.293438230850775e-02
-5.258276658081140e-02 8.902457448370016e-02 1.393232887514273e-02
0.000000000000000e+00 0.000000000000000e+00 0.000000000000000e+00
-3.999636250205391e-02 2.479009922247005e-02 1.607858032499365e-02
-6.881393697526900e-02 9.601477805178155e-02 1.695424928262490e-02
-2.582932005293759e-02 2.878672198150667e-02 3.606219920625264e-03
-1.005397380205031e-02 5.314167083375265e-02 -4.350863242590819e-03
0.000000000000000e+00 0.000000000000000e+00 0.000000000000000e+00
0.000000000000000e+00 0.000000000000000e+00 0.000000000000000e+00
-9.935250488182723e-03 2.896223693438693e-02 8.212504293041434e-04
-1.115275871006924e-02 1.520401846554265e-02 -3.186534565568166e-03
0.000000000000000e+00 0.000000000000000e+00 0.000000000000000e+00
-5.155888670754449e-03 7.278526249332340e-03 2.213410709138941e-03
-9.365836141890460e-03 4.266072796506359e-02 -1.810222617635304e-03
-8.206209130145414e-03 1.338543559626237e-02 -9.735392575471735e-05
5.359808150462519e-02 1.526540490798627e-01 -7.438919310427394e-04
-1.005397380205031e-02 5.314167083375265e-02 -4.350863242590819e-03
-9.935250488182723e-03 2.896223693438693e-02 8.212504293041434e-04
3.396054363559287e-02 1.068455240932510e-01 -1.379018880896865e-03
1.141485194092906e-02 1.030513490427171e-01 -1.647380740148918e-03
-9.365836141890460e-03 4.266072796506359e-02 -1.810222617635304e-03
2.426426791153014e-03 6.714465671075520e-02 4.797948021320053e-04
4.491003001784699e-02 1.291552841844034e-01 -1.319788254878773e-03
8.025666706684587e-03 8.540885733820991e-02 -5.954188302403907e-04
-9.927907211260800e-03 6.307194246623926e-02 -6.003289002778800e-03
0.000000000000000e+00 0.000000000000000e+00 0.000000000000000e+00
0.000000000000000e+00 0.000000000000000e+00 0.000000000000000e+00
-1.005397380205031e-02 5.314167083375265e-02 -4.350863242590819e-03
-1.122988160857741e-02 1.641842969668483e-02 -4.663083067770302e-03
0.000000000000000e+00 0.000000000000000e+00 0.000000000000000e+00
-1.115275871006924e-02 1.520401846554265e-02 -3.186534565568166e-03
-9.585054659091097e-03 5.985533722564740e-02 -5.287654002902542e-03
-1.129799976090595e-02 1.651506065449881e-02 -4.329887408507815e-03
7.389923125314113e-02 1.955121217535030e-01 -6.999314948062718e-03
-9.927907211260800e-03 6.307194246623926e-02 -6.003289002778800e-03
-1.005397380205031e-02 5.314167083375265e-02 -4.350863242590819e-03
5.359808150462519e-02 1.526540490798627e-01 -7.438919310427394e-04
1.803682988785682e-02 1.289523568819377e-01 -6.396877007208701e-03
-9.585054659091097e-03 5.985533722564740e-02 -5.287654002902542e-03
1.141485194092906e-02 1.030513490427171e-01 -1.647380740148918e-03
6.315622149185396e-02 1.763603266541903e-01 -1.016483192483264e-03
1.734463837086542e-02 1.199550981287222e-01 -5.238486560902089e-03
2.526496317663955e-01 2.850251396679278e-01 6.351828230860335e-03
7.389923125314113e-02 1.955121217535030e-01 -6.999314948062718e-03
5.359808150462519e-02 1.526540490798627e-01 -7.438919310427394e-04
1.861264158022535e-01 2.117775932064155e-01 -1.600448725228709e-02
1.556065429345492e-01 2.544179401281849e-01 9.726289941074384e-03
6.315622149185396e-02 1.763603266541903e-01 -1.016483192483264e-03
1.142129811704349e-01 1.910980978083137e-01 -2.914366701492810e-03
2.144238829504779e-01 2.466581864478997e-01 -6.496441134736131e-03
1.322536033060777e-01 2.218581499809527e-01 2.970127076164175e-03
1.014401933274394e-01 2.440031265051877e-01 1.100158956526265e-02
-1.068165426211093e-02 6.369394386413518e-02 -8.564584392528829e-03
-9.927907211260800e-03 6.307194246623926e-02 -6.003289002778800e-03
7.389923125314113e-02 1.955121217535030e-01 -6.999314948062718e-03
2.469082943349177e-02 1.474866093945042e-01 -3.541063743645267e-03
-9.207640143464590e-03 6.521871772453669e-02 -7.169938399137266e-03
1.803682988785682e-02 1.289523568819377e-01 -6.396877007208701e-03
9.063688072826726e-02 2.197157416979989e-01 1.184888086035230e-03
2.155184574819857e-02 1.400934299381075e-01 -3.851318752072785e-03
3.762624156880117e-01 3.581842502926367e-01 3.497031427681385e-02
1.014401933274394e-01 2.440031265051877e-01 1.100158956526265e-02
7.389923125314113e-02 1.955121217535030e-01 -6.999314948062718e-03
2.526496317663955e-01 2.850251396679278e-01 6.351828230860335e-03
2.418144305358820e-01 3.171759079818791e-01 2.640994493303239e-02
9.063688072826726e-02 2.197157416979989e-01 1.184888086035230e-03
1.556065429345492e-01 2.544179401281849e-01 9.726289941074384e-03
2.989212374134367e-01 3.229552400954774e-01 2.035007296302993e-02
1.985023203136653e-01 2.839574799213082e-01 1.227591559590380e-02
-1.571300325984104e-01 5.034513715274314e-01 5.485580220603836e-02
-2.195303987526378e-01 5.760230313750674e-01 4.867049705168824e-02
-3.231887126656716e-01 8.779437617486250e-01 4.045412579660201e-02
-2.523073790297377e-01 7.886807445656054e-01 5.694103043930809e-02
-1.886970896794558e-01 5.404449220943948e-01 5.136806403391603e-02
-2.717684192028309e-01 7.241111961641957e-01 4.459690531562188e-02
-2.866174265975503e-01 8.313449850107053e-01 4.989176227163661e-02
-2.044854187946878e-01 6.433163116082090e-01 5.609836526118528e-02
-2.374265236302642e-01 6.841920180694534e-01 5.076674995573249e-02
-2.195303987526378e-01 5.760230313750674e-01 4.867049705168824e-02
-2.835859856893626e-01 6.422764236429961e-01 3.973089693672627e-02
-4.033398338567953e-01 9.988992970060409e-01 1.552016243542553e-02
-3.231887126656716e-01 8.779437617486250e-01 4.045412579660201e-02
-2.437652279429492e-01 6.117950744663601e-01 4.856540320037261e-02
-3.373624418884327e-01 8.190665807872020e-01 3.244444742979091e-02
-3.612950585017680e-01 9.265812227773160e-01 3.029202340933068e-02
-2.717684192028309e-01 7.241111961641957e-01 4.459690531562188e-02
-3.036172920154891e-01 7.714392865202695e-01 3.991844617386597e-02
-7.017977535997921e-02 2.464398866088612e-01 3.949302085999484e-02
-1.221475793541158e-01 3.037929230163012e-01 4.164026092155027e-02
-2.195303987526378e-01 5.760230313750674e-01 4.867049705168824e-02
-1.571300325984104e-01 5.034513715274314e-01 5.485580220603836e-02
-9.969840235940319e-02 2.762089057143859e-01 3.945084189694192e-02
-1.668069474866554e-01 4.367323378361699e-01 4.999105480467136e-02
-1.886970896794558e-01 5.404449220943948e-01 5.136806403391603e-02
-1.107340396929404e-01 3.707116409527676e-01 4.991618677202503e-02
-1.423101405261986e-01 4.034430512125998e-01 4.779047176054263e-02
-1.221475793541158e-01 3.037929230163012e-01 4.164026092155027e-02
-1.752913245253541e-01 3.345500267158113e-01 3.786593790603732e-02
-2.835859856893626e-01 6.422764236429961e-01 3.973089693672627e-02
-2.195303987526378e-01 5.760230313750674e-01 4.867049705168824e-02
-1.519096815025056e-01 3.210874522539052e-01 3.764245912146258e-02
-2.282676554630114e-01 4.818893251040829e-01 4.030579621659847e-02
-2.437652279429492e-01 6.117950744663601e-01 4.856540320037261e-02