<?xml version="1.0" ?> 
<!-- 
# vtk DataFile Version 3.0
-->
<VTKFile type="UnstructuredGrid" version="0.1" compressor="vtkZLibDataCompressor" byte_order="LittleEndian">
  <UnstructuredGrid>
    <FieldData>
      <DataArray type="Float64" Name="TIME" NumberOfTuples="1" format="ascii">
3.000000000000000e+00 
      </DataArray>
    </FieldData>

    <Piece NumberOfPoints="204" NumberOfCells="0" >
      <Points>
        <DataArray type="Float64" NumberOfComponents="3" format="ascii">
2.000000000000000e+00 3.000000000000000e-01 1.850000000000000e+01
2.000000000000000e+00 3.000000000000000e-01 1.800000000000000e+01
1.707207993010000e+00 3.000000000000000e-01 1.799996097670000e+01
1.500000000000000e+00 3.000000000000000e-01 1.850000000000000e+01
2.000000000000000e+00 3.000000000000000e-01 1.850000000000000e+01
1.707207993010000e+00 3.000000000000000e-01 1.799996097670000e+01
1.707207993010000e+00 3.000000000000000e-01 1.799996097670000e+01
2.000000000000000e+00 3.000000000000000e-01 1.750000000000000e+01
1.500000000000000e+00 3.000000000000000e-01 1.750000000000000e+01
1.500000000000000e+00 3.000000000000000e-01 1.750000000000000e+01
1.243247958050000e+00 3.000000000000000e-01 1.799976586030000e+01
1.707207993010000e+00 3.000000000000000e-01 1.799996097670000e+01
0.000000000000000e+00 3.000000000000000e-01 1.750000000000000e+01
0.000000000000000e+00 3.000000000000000e-01 1.800000000000000e+01
2.924006335830000e-01 3.000000000000000e-01 1.799985499550000e+01
5.000000000000000e-01 3.000000000000000e-01 1.750000000000000e+01
7.544038015000000e-01 3.000000000000000e-01 1.799912997290000e+01
1.000000000000000e+00 3.000000000000000e-01 1.750000000000000e+01
5.000000000000000e-01 3.000000000000000e-01 1.750000000000000e+01
0.000000000000000e+00 3.000000000000000e-01 1.750000000000000e+01
2.924006335830000e-01 3.000000000000000e-01 1.799985499550000e+01
1.243247958050000e+00 3.000000000000000e-01 1.799976586030000e+01
7.544038015000000e-01 3.000000000000000e-01 1.799912997290000e+01
1.000000000000000e+00 3.000000000000000e-01 1.850000000000000e+01
1.000000000000000e+00 3.000000000000000e-01 1.750000000000000e+01
1.243247958050000e+00 3.000000000000000e-01 1.799976586030000e+01
1.500000000000000e+00 3.000000000000000e-01 1.750000000000000e+01
1.243247958050000e+00 3.000000000000000e-01 1.799976586030000e+01
1.000000000000000e+00 3.000000000000000e-01 1.850000000000000e+01
1.500000000000000e+00 3.000000000000000e-01 1.850000000000000e+01
1.707207993010000e+00 3.000000000000000e-01 1.799996097670000e+01
2.000000000000000e+00 3.000000000000000e-01 1.800000000000000e+01
2.000000000000000e+00 3.000000000000000e-01 1.750000000000000e+01
1.243247958050000e+00 3.000000000000000e-01 1.799976586030000e+01
1.000000000000000e+00 3.000000000000000e-01 1.750000000000000e+01
7.544038015000000e-01 3.000000000000000e-01 1.799912997290000e+01
1.243247958050000e+00 3.000000000000000e-01 1.799976586030000e+01
1.500000000000000e+00 3.000000000000000e-01 1.850000000000000e+01
1.707207993010000e+00 3.000000000000000e-01 1.799996097670000e+01
7.544038015000000e-01 3.000000000000000e-01 1.799912997290000e+01
2.924006335830000e-01 3.000000000000000e-01 1.799985499550000e+01
5.000000000000000e-01 3.000000000000000e-01 1.850000000000000e+01
7.544038015000000e-01 3.000000000000000e-01 1.799912997290000e+01
5.000000000000000e-01 3.000000000000000e-01 1.750000000000000e+01
2.924006335830000e-01 3.000000000000000e-01 1.799985499550000e+01
5.000000000000000e-01 3.000000000000000e-01 1.850000000000000e+01
1.000000000000000e+00 3.000000000000000e-01 1.850000000000000e+01
7.544038015000000e-01 3.000000000000000e-01 1.799912997290000e+01
7.282793318550000e-01 6.852803913680000e-01 2.048410264420000e+01
5.000000000000000e-01 8.660254037839999e-01 2.000000000000000e+01
4.329390516020000e-01 9.014231956180000e-01 2.074976147080000e+01
6.207533480730000e-01 7.840059188910000e-01 2.024205132210000e+01
4.668051728700000e-01 8.843601814770000e-01 2.037488073540000e+01
5.905814604920000e-01 8.069780285250000e-01 2.061693205750000e+01
8.660254037839999e-01 5.000000000000000e-01 2.000000000000000e+01
7.282793318550000e-01 6.852803913680000e-01 2.048410264420000e+01
9.504792740630000e-01 3.107879495360000e-01 2.074983937880000e+01
8.025173539410000e-01 5.966287762280000e-01 2.024205132210000e+01
8.600109077700000e-01 5.102756495440000e-01 2.061697101150000e+01
9.131662560400000e-01 4.075872775610000e-01 2.037491968940000e+01
7.282793318550000e-01 6.852803913680000e-01 2.048410264420000e+01
8.660254037839999e-01 5.000000000000000e-01 2.000000000000000e+01
5.000000000000000e-01 8.660254037839999e-01 2.000000000000000e+01
8.025173539410000e-01 5.966287762280000e-01 2.024205132210000e+01
7.071067811870000e-01 7.071067811870000e-01 2.000000000000000e+01
6.207533480730000e-01 7.840059188910000e-01 2.024205132210000e+01
7.282793318550000e-01 6.852803913680000e-01 2.048410264420000e+01
4.329390516020000e-01 9.014231956180000e-01 2.074976147080000e+01
7.283520826140000e-01 6.852030675290000e-01 2.101496824100000e+01
5.905814604920000e-01 8.069780285250000e-01 2.061693205750000e+01
5.906242972910000e-01 8.069466769560000e-01 2.088236485590000e+01
7.283157082610000e-01 6.852417304140000e-01 2.074953544260000e+01
1.000000000000000e+00 0.000000000000000e+00 2.050000000000000e+01
1.000000000000000e+00 0.000000000000000e+00 2.000000000000000e+01
9.504792740630000e-01 3.107879495360000e-01 2.074983937880000e+01
1.000000000000000e+00 0.000000000000000e+00 2.025000000000000e+01
9.875422203790000e-01 1.573542594550000e-01 2.037491968940000e+01
9.875422203790000e-01 1.573542594550000e-01 2.062491968940000e+01
7.282793318550000e-01 6.852803913680000e-01 2.048410264420000e+01
7.283520826140000e-01 6.852030675290000e-01 2.101496824100000e+01
9.504792740630000e-01 3.107879495360000e-01 2.074983937880000e+01
7.283157082610000e-01 6.852417304140000e-01 2.074953544260000e+01
8.600379940360000e-01 5.102299959960001e-01 2.088240380990000e+01
8.600109077700000e-01 5.102756495440000e-01 2.061697101150000e+01
0.000000000000000e+00 1.000000000000000e+00 2.050000000000000e+01
4.329390516020000e-01 9.014231956180000e-01 2.074976147080000e+01
5.000000000000000e-01 8.660254037839999e-01 2.000000000000000e+01
2.220099146240000e-01 9.750444081210000e-01 2.062488073540000e+01
4.668051728700000e-01 8.843601814770000e-01 2.037488073540000e+01
2.588190451030000e-01 9.659258262890000e-01 2.025000000000000e+01
4.329390516020000e-01 9.014231956180000e-01 2.074976147080000e+01
5.000000000000000e-01 8.660254037839999e-01 2.150000000000000e+01
7.283520826140000e-01 6.852030675290000e-01 2.101496824100000e+01
4.668051728700000e-01 8.843601814770000e-01 2.112488073540000e+01
6.207949653770000e-01 7.839729657090000e-01 2.125748412050000e+01
5.906242972910000e-01 8.069466769560000e-01 2.088236485590000e+01
9.504792740630000e-01 3.107879495360000e-01 2.074983937880000e+01
1.000000000000000e+00 0.000000000000000e+00 2.000000000000000e+01
8.660254037839999e-01 5.000000000000000e-01 2.000000000000000e+01
9.875422203790000e-01 1.573542594550000e-01 2.037491968940000e+01
9.659258262890000e-01 2.588190451030000e-01 2.000000000000000e+01
9.131662560400000e-01 4.075872775610000e-01 2.037491968940000e+01
4.329390516020000e-01 9.014231956180000e-01 2.074976147080000e+01
0.000000000000000e+00 1.000000000000000e+00 2.050000000000000e+01
0.000000000000000e+00 1.000000000000000e+00 2.100000000000000e+01
2.220099146240000e-01 9.750444081210000e-01 2.062488073540000e+01
0.000000000000000e+00 1.000000000000000e+00 2.075000000000000e+01
2.220099146240000e-01 9.750444081210000e-01 2.087488073540000e+01
0.000000000000000e+00 1.000000000000000e+00 2.150000000000000e+01
5.000000000000000e-01 8.660254037839999e-01 2.150000000000000e+01
0.000000000000000e+00 1.000000000000000e+00 2.100000000000000e+01
2.588190451030000e-01 9.659258262890000e-01 2.150000000000000e+01
2.588190451030000e-01 9.659258262890000e-01 2.125000000000000e+01
0.000000000000000e+00 1.000000000000000e+00 2.125000000000000e+01
4.329390516020000e-01 9.014231956180000e-01 2.074976147080000e+01
0.000000000000000e+00 1.000000000000000e+00 2.100000000000000e+01
5.000000000000000e-01 8.660254037839999e-01 2.150000000000000e+01
2.220099146240000e-01 9.750444081210000e-01 2.087488073540000e+01
2.588190451030000e-01 9.659258262890000e-01 2.125000000000000e+01
4.668051728700000e-01 8.843601814770000e-01 2.112488073540000e+01
2.000000000000000e+00 3.000000000000000e-01 2.350000000000000e+01
2.000000000000000e+00 3.000000000000000e-01 2.300000000000000e+01
1.707207993010000e+00 3.000000000000000e-01 2.299996097670000e+01
2.000000000000000e+00 3.000000000000000e-01 2.325000000000000e+01
1.853603996500000e+00 3.000000000000000e-01 2.299998048840000e+01
1.853603996500000e+00 3.000000000000000e-01 2.324998048840000e+01
1.243247958050000e+00 3.000000000000000e-01 2.299976586030000e+01
1.500000000000000e+00 3.000000000000000e-01 2.350000000000000e+01
1.707207993010000e+00 3.000000000000000e-01 2.299996097670000e+01
1.371623979020000e+00 3.000000000000000e-01 2.324988293010000e+01
1.603603996500000e+00 3.000000000000000e-01 2.324998048840000e+01
1.475227975530000e+00 3.000000000000000e-01 2.299986341850000e+01
7.544038015000000e-01 3.000000000000000e-01 2.299912997290000e+01
2.924006335830000e-01 3.000000000000000e-01 2.299985499550000e+01
5.000000000000000e-01 3.000000000000000e-01 2.350000000000000e+01
5.234022175420000e-01 3.000000000000000e-01 2.299949248420000e+01
3.962003167920000e-01 3.000000000000000e-01 2.324992749770000e+01
6.272019007500000e-01 3.000000000000000e-01 2.324956498650000e+01
5.000000000000000e-01 3.000000000000000e-01 2.250000000000000e+01
7.544038015000000e-01 3.000000000000000e-01 2.299912997290000e+01
1.000000000000000e+00 3.000000000000000e-01 2.250000000000000e+01
6.272019007500000e-01 3.000000000000000e-01 2.274956498650000e+01
8.772019007500000e-01 3.000000000000000e-01 2.274956498650000e+01
7.500000000000000e-01 3.000000000000000e-01 2.250000000000000e+01
0.000000000000000e+00 3.000000000000000e-01 2.250000000000000e+01
0.000000000000000e+00 3.000000000000000e-01 2.300000000000000e+01
2.924006335830000e-01 3.000000000000000e-01 2.299985499550000e+01
0.000000000000000e+00 3.000000000000000e-01 2.275000000000000e+01
1.462003167920000e-01 3.000000000000000e-01 2.299992749770000e+01
1.462003167920000e-01 3.000000000000000e-01 2.274992749770000e+01
7.544038015000000e-01 3.000000000000000e-01 2.299912997290000e+01
5.000000000000000e-01 3.000000000000000e-01 2.250000000000000e+01
2.924006335830000e-01 3.000000000000000e-01 2.299985499550000e+01
6.272019007500000e-01 3.000000000000000e-01 2.274956498650000e+01
3.962003167920000e-01 3.000000000000000e-01 2.274992749770000e+01
5.234022175420000e-01 3.000000000000000e-01 2.299949248420000e+01
1.500000000000000e+00 3.000000000000000e-01 2.250000000000000e+01
1.243247958050000e+00 3.000000000000000e-01 2.299976586030000e+01
1.707207993010000e+00 3.000000000000000e-01 2.299996097670000e+01
1.371623979020000e+00 3.000000000000000e-01 2.274988293010000e+01
1.475227975530000e+00 3.000000000000000e-01 2.299986341850000e+01
1.603603996500000e+00 3.000000000000000e-01 2.274998048840000e+01
5.000000000000000e-01 3.000000000000000e-01 2.250000000000000e+01
0.000000000000000e+00 3.000000000000000e-01 2.250000000000000e+01
2.924006335830000e-01 3.000000000000000e-01 2.299985499550000e+01
2.500000000000000e-01 3.000000000000000e-01 2.250000000000000e+01
1.462003167920000e-01 3.000000000000000e-01 2.274992749770000e+01
3.962003167920000e-01 3.000000000000000e-01 2.274992749770000e+01
1.243247958050000e+00 3.000000000000000e-01 2.299976586030000e+01
7.544038015000000e-01 3.000000000000000e-01 2.299912997290000e+01
1.000000000000000e+00 3.000000000000000e-01 2.350000000000000e+01
9.988258797739999e-01 3.000000000000000e-01 2.299944791660000e+01
8.772019007500000e-01 3.000000000000000e-01 2.324956498650000e+01
1.121623979020000e+00 3.000000000000000e-01 2.324988293010000e+01
5.000000000000000e-01 3.000000000000000e-01 2.350000000000000e+01
1.000000000000000e+00 3.000000000000000e-01 2.350000000000000e+01
7.544038015000000e-01 3.000000000000000e-01 2.299912997290000e+01
7.500000000000000e-01 3.000000000000000e-01 2.350000000000000e+01
8.772019007500000e-01 3.000000000000000e-01 2.324956498650000e+01
6.272019007500000e-01 3.000000000000000e-01 2.324956498650000e+01
1.000000000000000e+00 3.000000000000000e-01 2.250000000000000e+01
1.243247958050000e+00 3.000000000000000e-01 2.299976586030000e+01
1.500000000000000e+00 3.000000000000000e-01 2.250000000000000e+01
1.121623979020000e+00 3.000000000000000e-01 2.274988293010000e+01
1.371623979020000e+00 3.000000000000000e-01 2.274988293010000e+01
1.250000000000000e+00 3.000000000000000e-01 2.250000000000000e+01
1.243247958050000e+00 3.000000000000000e-01 2.299976586030000e+01
1.000000000000000e+00 3.000000000000000e-01 2.350000000000000e+01
1.500000000000000e+00 3.000000000000000e-01 2.350000000000000e+01
1.121623979020000e+00 3.000000000000000e-01 2.324988293010000e+01
1.250000000000000e+00 3.000000000000000e-01 2.350000000000000e+01
1.371623979020000e+00 3.000000000000000e-01 2.324988293010000e+01
1.243247958050000e+00 3.000000000000000e-01 2.299976586030000e+01
1.000000000000000e+00 3.000000000000000e-01 2.250000000000000e+01
7.544038015000000e-01 3.000000000000000e-01 2.299912997290000e+01
1.121623979020000e+00 3.000000000000000e-01 2.274988293010000e+01
8.772019007500000e-01 3.000000000000000e-01 2.274956498650000e+01
9.988258797739999e-01 3.000000000000000e-01 2.299944791660000e+01
1.500000000000000e+00 3.000000000000000e-01 2.350000000000000e+01
2.000000000000000e+00 3.000000000000000e-01 2.350000000000000e+01
1.707207993010000e+00 3.000000000000000e-01 2.299996097670000e+01
1.750000000000000e+00 3.000000000000000e-01 2.350000000000000e+01
1.853603996500000e+00 3.000000000000000e-01 2.324998048840000e+01
1.603603996500000e+00 3.000000000000000e-01 2.324998048840000e+01
        </DataArray>
      </Points>

      <Cells>
        <DataArray type="Int32" Name="connectivity" format="ascii">

        </DataArray>
        <DataArray type="Int32" Name="offsets" format="ascii">

        </DataArray>
        <DataArray type="UInt8" Name="types" format="ascii">

        </DataArray>
      </Cells>

  <PointData>
        <DataArray type="Int32" Name="coupling_id" format="ascii">
8
8
8
8
8
8
8
8
8
8
8
8
8
8
8
8
8
8
8
8
8
8
8
8
8
8
8
8
8
8
8
8
8
8
8
8
8
8
8
8
8
8
8
8
8
8
8
8
9
9
9
9
9
9
9
9
9
9
9
9
9
9
9
9
9
9
9
9
9
9
9
9
9
9
9
9
9
9
9
9
9
9
9
9
9
9
9
9
9
9
9
9
9
9
9
9
9
9
9
9
9
9
9
9
9
9
9
9
9
9
9
9
9
9
9
9
9
9
9
9
10
10
10
10
10
10
10
10
10
10
10
10
10
10
10
10
10
10
10
10
10
10
10
10
10
10
10
10
10
10
10
10
10
10
10
10
10
10
10
10
10
10
10
10
10
10
10
10
10
10
10
10
10
10
10
10
10
10
10
10
10
10
10
10
10
10
10
10
10
10
10
10
10
10
10
10
10
10
10
10
10
10
10
10
        </DataArray>
        <DataArray type="Float64" Name="displacement" NumberOfComponents="3" format="ascii">
-9.207500863562657e-02 4.599100892675055e-01 3.511204179631022e-03
-7.475148873833426e-02 3.890838887692529e-01 8.155138990048272e-03
-6.082197790561072e-02 3.034081110891773e-01 1.440743576922188e-02
-6.127006013045211e-02 2.867912904220236e-01 1.449234387132492e-02
-9.207500863562657e-02 4.599100892675055e-01 3.511204179631022e-03
-6.082197790561072e-02 3.034081110891773e-01 1.440743576922188e-02
-6.082197790561072e-02 3.034081110891773e-01 1.440743576922188e-02
-6.421554788869277e-02 3.371628534550158e-01 1.291670182945737e-02
-4.149359267873742e-02 2.064338867039584e-01 1.755741695982493e-02
-4.149359267873742e-02 2.064338867039584e-01 1.755741695982493e-02
-3.974744494326865e-02 1.763069938136246e-01 1.502484168497276e-02
-6.082197790561072e-02 3.034081110891773e-01 1.440743576922188e-02
0.000000000000000e+00 0.000000000000000e+00 0.000000000000000e+00
0.000000000000000e+00 0.000000000000000e+00 0.000000000000000e+00
-6.637058448114186e-03 1.238117384085485e-02 -4.282938842479211e-04
-4.753642114906365e-03 1.138784981100216e-02 1.853573817452769e-03
-2.017975214327661e-02 7.580837722996420e-02 8.532711110863289e-03
-2.008362871729530e-02 9.413726350981266e-02 1.348112947119873e-02
-4.753642114906365e-03 1.138784981100216e-02 1.853573817452769e-03
0.000000000000000e+00 0.000000000000000e+00 0.000000000000000e+00
-6.637058448114186e-03 1.238117384085485e-02 -4.282938842479211e-04
-3.974744494326865e-02 1.763069938136246e-01 1.502484168497276e-02
-2.017975214327661e-02 7.580837722996420e-02 8.532711110863289e-03
-4.208383438179486e-02 1.473696483804997e-01 1.289187828382055e-02
-2.008362871729530e-02 9.413726350981266e-02 1.348112947119873e-02
-3.974744494326865e-02 1.763069938136246e-01 1.502484168497276e-02
-4.149359267873742e-02 2.064338867039584e-01 1.755741695982493e-02
-3.974744494326865e-02 1.763069938136246e-01 1.502484168497276e-02
-4.208383438179486e-02 1.473696483804997e-01 1.289187828382055e-02
-6.127006013045211e-02 2.867912904220236e-01 1.449234387132492e-02
-6.082197790561072e-02 3.034081110891773e-01 1.440743576922188e-02
-7.475148873833426e-02 3.890838887692529e-01 8.155138990048272e-03
-6.421554788869277e-02 3.371628534550158e-01 1.291670182945737e-02
-3.974744494326865e-02 1.763069938136246e-01 1.502484168497276e-02
-2.008362871729530e-02 9.413726350981266e-02 1.348112947119873e-02
-2.017975214327661e-02 7.580837722996420e-02 8.532711110863289e-03
-3.974744494326865e-02 1.763069938136246e-01 1.502484168497276e-02
-6.127006013045211e-02 2.867912904220236e-01 1.449234387132492e-02
-6.082197790561072e-02 3.034081110891773e-01 1.440743576922188e-02
-2.017975214327661e-02 7.580837722996420e-02 8.532711110863289e-03
-6.637058448114186e-03 1.238117384085485e-02 -4.282938842479211e-04
-2.373868963192582e-02 4.758940952492285e-02 5.752017586196700e-03
-2.017975214327661e-02 7.580837722996420e-02 8.532711110863289e-03
-4.753642114906365e-03 1.138784981100216e-02 1.853573817452769e-03
-6.637058448114186e-03 1.238117384085485e-02 -4.282938842479211e-04
-2.373868963192582e-02 4.758940952492285e-02 5.752017586196700e-03
-4.208383438179486e-02 1.473696483804997e-01 1.289187828382055e-02
-2.017975214327661e-02 7.580837722996420e-02 8.532711110863289e-03
2.375951504604135e-02 1.385493546579780e-01 -6.168678556210949e-03
-1.079174947002537e-02 6.346956540538251e-02 -6.355418767775234e-03
-1.263097452001799e-02 4.496809904880616e-02 -5.859092168833513e-03
3.997271473936137e-03 1.036595392051409e-01 -5.887197505465736e-03
-1.120226206532166e-02 5.460279490688957e-02 -6.757602387683193e-03
-1.662210890213567e-03 8.646864824977818e-02 -6.430044051512596e-03
1.039756529661580e-01 2.377953896426429e-01 8.305967225147981e-03
2.375951504604135e-02 1.385493546579780e-01 -6.168678556210949e-03
1.161423004164049e-01 2.164802929844564e-01 3.465604630292773e-03
5.533539329989690e-02 1.834371294386651e-01 -1.545640236717105e-03
6.604961306017509e-02 1.842158596306951e-01 -3.796708241701197e-03
1.177024358588670e-01 2.325418803578333e-01 1.121845751008266e-03
2.375951504604135e-02 1.385493546579780e-01 -6.168678556210949e-03
1.039756529661580e-01 2.377953896426429e-01 8.305967225147981e-03
-1.079174947002537e-02 6.346956540538251e-02 -6.355418767775234e-03
5.533539329989690e-02 1.834371294386651e-01 -1.545640236717105e-03
2.426192362771418e-02 1.463509879608840e-01 -2.782011921780736e-03
3.997271473936137e-03 1.036595392051409e-01 -5.887197505465736e-03
2.375951504604135e-02 1.385493546579780e-01 -6.168678556210949e-03
-1.263097452001799e-02 4.496809904880616e-02 -5.859092168833513e-03
1.529293065565096e-02 1.091793772203670e-01 -1.904838309286561e-03
-1.662210890213567e-03 8.646864824977818e-02 -6.430044051512596e-03
-1.322927339128421e-03 7.868919967822019e-02 -4.936575466555126e-03
2.135812506680523e-02 1.273073451166941e-01 -4.541295226403008e-03
2.522266612753132e-01 2.822395604960871e-01 4.832031825579008e-03
3.680804765351278e-01 3.553574541575784e-01 3.548009482321390e-02
1.161423004164049e-01 2.164802929844564e-01 3.465604630292773e-03
2.988249795679909e-01 3.183575837461664e-01 1.818141096737946e-02
2.147534803758459e-01 2.838217649062256e-01 1.281101445860244e-02
1.792024986573296e-01 2.524052044324727e-01 5.647078698828523e-03
2.375951504604135e-02 1.385493546579780e-01 -6.168678556210949e-03
1.529293065565096e-02 1.091793772203670e-01 -1.904838309286561e-03
1.161423004164049e-01 2.164802929844564e-01 3.465604630292773e-03
2.135812506680523e-02 1.273073451166941e-01 -4.541295226403008e-03
5.566384547259118e-02 1.630993343179404e-01 -4.252281542740377e-04
6.604961306017509e-02 1.842158596306951e-01 -3.796708241701197e-03
0.000000000000000e+00 0.000000000000000e+00 0.000000000000000e+00
-1.263097452001799e-02 4.496809904880616e-02 -5.859092168833513e-03
-1.079174947002537e-02 6.346956540538251e-02 -6.355418767775234e-03
-1.054297053321515e-02 1.176063433145924e-02 -4.060517284070642e-03
-1.120226206532166e-02 5.460279490688957e-02 -6.757602387683193e-03
-1.147640086270413e-02 1.561901311790648e-02 -4.568101929510959e-03
-1.263097452001799e-02 4.496809904880616e-02 -5.859092168833513e-03
-1.020722170309324e-02 3.136814837289170e-02 1.897730446778212e-04
1.529293065565096e-02 1.091793772203670e-01 -1.904838309286561e-03
-1.150932549082317e-02 4.251253939552524e-02 -3.069717924713444e-03
-2.533997297443191e-03 6.712765315172597e-02 -1.135696452507773e-03
-1.322927339128421e-03 7.868919967822019e-02 -4.936575466555126e-03
1.161423004164049e-01 2.164802929844564e-01 3.465604630292773e-03
3.680804765351278e-01 3.553574541575784e-01 3.548009482321390e-02
1.039756529661580e-01 2.377953896426429e-01 8.305967225147981e-03
2.147534803758459e-01 2.838217649062256e-01 1.281101445860244e-02
2.383596638142149e-01 3.105353652535267e-01 2.367693535126492e-02
1.177024358588670e-01 2.325418803578333e-01 1.121845751008266e-03
-1.263097452001799e-02 4.496809904880616e-02 -5.859092168833513e-03
0.000000000000000e+00 0.000000000000000e+00 0.000000000000000e+00
0.000000000000000e+00 0.000000000000000e+00 0.000000000000000e+00
-1.054297053321515e-02 1.176063433145924e-02 -4.060517284070642e-03
0.000000000000000e+00 0.000000000000000e+00 0.000000000000000e+00
-1.083805963197523e-02 1.199084722657962e-02 -3.508621374926690e-03
0.000000000000000e+00 0.000000000000000e+00 0.000000000000000e+00
-1.020722170309324e-02 3.136814837289170e-02 1.897730446778212e-04
0.000000000000000e+00 0.000000000000000e+00 0.000000000000000e+00
-5.360103203101929e-03 8.218505021587830e-03 1.612374984091502e-03
-8.952860835591797e-03 1.309892166682847e-02 7.490438613899641e-05
0.000000000000000e+00 0.000000000000000e+00 0.000000000000000e+00
-1.263097452001799e-02 4.496809904880616e-02 -5.859092168833513e-03
0.000000000000000e+00 0.000000000000000e+00 0.000000000000000e+00
-1.020722170309324e-02 3.136814837289170e-02 1.897730446778212e-04
-1.083805963197523e-02 1.199084722657962e-02 -3.508621374926690e-03
-8.952860835591797e-03 1.309892166682847e-02 7.490438613899641e-05
-1.150932549082317e-02 4.251253939552524e-02 -3.069717924713444e-03
-4.000812611932365e-01 9.898851336738559e-01 1.892933832796828e-02
-3.214040726041005e-01 8.741785461728000e-01 4.240736132074119e-02
-2.605178933242067e-01 6.957949621848551e-01 4.657352325781616e-02
-3.575043216638698e-01 9.238919005865540e-01 3.073145054326432e-02
-2.914531091018897e-01 7.848928525435310e-01 4.408006445593315e-02
-3.260032388937286e-01 8.345802991630480e-01 3.657358498339747e-02
-1.641647285127283e-01 4.310948981098289e-01 5.031827322298454e-02
-2.771242465251769e-01 6.386160138778407e-01 4.303042412671587e-02
-2.605178933242067e-01 6.957949621848551e-01 4.657352325781616e-02
-2.163194411865101e-01 5.303614698552954e-01 4.927242026487733e-02
-2.668294118656664e-01 6.737087703963769e-01 4.679473865095218e-02
-2.101712945862309e-01 5.598228965173686e-01 5.056734133915697e-02
-8.617976825937856e-02 1.859195370045129e-01 2.649087390103233e-02
-3.090780089154338e-02 3.801468992274964e-02 5.942647908469212e-03
-8.571527673479240e-02 9.747289831411388e-02 2.258164571887633e-02
-5.553647084621410e-02 9.837026955774814e-02 1.501279442930681e-02
-5.552012524196082e-02 6.647484236648371e-02 1.354517768184493e-02
-8.897989565552167e-02 1.452962742881467e-01 2.286793852622537e-02
-1.281188909060271e-02 5.312303437148130e-02 1.013775996392141e-02
-8.617976825937856e-02 1.859195370045129e-01 2.649087390103233e-02
-7.064356877906475e-02 2.467477351871883e-01 4.023162919457235e-02
-4.696289920429675e-02 1.150860333255356e-01 1.793409526771228e-02
-7.954140833934897e-02 2.176682416730307e-01 3.352108531140985e-02
-3.654796218739031e-02 1.395245645041853e-01 2.680338599454046e-02
0.000000000000000e+00 0.000000000000000e+00 0.000000000000000e+00
0.000000000000000e+00 0.000000000000000e+00 0.000000000000000e+00
-3.090780089154338e-02 3.801468992274964e-02 5.942647908469212e-03
0.000000000000000e+00 0.000000000000000e+00 0.000000000000000e+00
-1.500188724311469e-02 1.140538430397015e-02 1.493195758634158e-03
-9.791613088683676e-03 8.616547215294645e-03 6.647834116115803e-04
-8.617976825937856e-02 1.859195370045129e-01 2.649087390103233e-02
-1.281188909060271e-02 5.312303437148130e-02 1.013775996392141e-02
-3.090780089154338e-02 3.801468992274964e-02 5.942647908469212e-03
-4.696289920429675e-02 1.150860333255356e-01 1.793409526771228e-02
-2.613608929395334e-02 4.893409828987816e-02 6.186518982350009e-03
-5.553647084621410e-02 9.837026955774814e-02 1.501279442930681e-02
-1.557154338163045e-01 5.020753125403123e-01 5.501697912306369e-02
-1.641647285127283e-01 4.310948981098289e-01 5.031827322298454e-02
-2.605178933242067e-01 6.957949621848551e-01 4.657352325781616e-02
-1.628049818858683e-01 4.675793096055089e-01 5.108712207725219e-02
-2.101712945862309e-01 5.598228965173686e-01 5.056734133915697e-02
-2.079656500086318e-01 5.972161475324884e-01 5.161598725559102e-02
-1.281188909060271e-02 5.312303437148130e-02 1.013775996392141e-02
0.000000000000000e+00 0.000000000000000e+00 0.000000000000000e+00
-3.090780089154338e-02 3.801468992274964e-02 5.942647908469212e-03
-2.443314760889409e-03 5.539862406836071e-03 9.529123394500516e-04
-9.791613088683676e-03 8.616547215294645e-03 6.647834116115803e-04
-2.613608929395334e-02 4.893409828987816e-02 6.186518982350009e-03
-1.641647285127283e-01 4.310948981098289e-01 5.031827322298454e-02
-8.617976825937856e-02 1.859195370045129e-01 2.649087390103233e-02
-1.753912182484719e-01 3.319013145737876e-01 3.787872171483997e-02
-1.215949927639803e-01 3.017231765434816e-01 4.111753677779717e-02
-1.285299918635984e-01 2.568652471741598e-01 3.309062055619094e-02
-1.706874584243088e-01 3.861653170197057e-01 4.389709526807195e-02
-8.571527673479240e-02 9.747289831411388e-02 2.258164571887633e-02
-1.753912182484719e-01 3.319013145737876e-01 3.787872171483997e-02
-8.617976825937856e-02 1.859195370045129e-01 2.649087390103233e-02
-1.276656291337439e-01 2.018296537389748e-01 3.049028322621083e-02
-1.285299918635984e-01 2.568652471741598e-01 3.309062055619094e-02
-8.897989565552167e-02 1.452962742881467e-01 2.286793852622537e-02
-7.064356877906475e-02 2.467477351871883e-01 4.023162919457235e-02
-1.641647285127283e-01 4.310948981098289e-01 5.031827322298454e-02
-1.557154338163045e-01 5.020753125403123e-01 5.501697912306369e-02
-1.183478797370603e-01 3.358805114864340e-01 4.482601071369885e-02
-1.628049818858683e-01 4.675793096055089e-01 5.108712207725219e-02
-1.104214677052540e-01 3.698428472022497e-01 4.989788335491596e-02
-1.641647285127283e-01 4.310948981098289e-01 5.031827322298454e-02
-1.753912182484719e-01 3.319013145737876e-01 3.787872171483997e-02
-2.771242465251769e-01 6.386160138778407e-01 4.303042412671587e-02
-1.706874584243088e-01 3.861653170197057e-01 4.389709526807195e-02
-2.239378093054634e-01 4.788587423280118e-01 4.268623887297096e-02
-2.163194411865101e-01 5.303614698552954e-01 4.927242026487733e-02
-1.641647285127283e-01 4.310948981098289e-01 5.031827322298454e-02
-7.064356877906475e-02 2.467477351871883e-01 4.023162919457235e-02
-8.617976825937856e-02 1.859195370045129e-01 2.649087390103233e-02
-1.183478797370603e-01 3.358805114864340e-01 4.482601071369885e-02
-7.954140833934897e-02 2.176682416730307e-01 3.352108531140985e-02
-1.215949927639803e-01 3.017231765434816e-01 4.111753677779717e-02
-2.771242465251769e-01 6.386160138778407e-01 4.303042412671587e-02
-4.000812611932365e-01 9.898851336738559e-01 1.892933832796828e-02
-2.605178933242067e-01 6.957949621848551e-01 4.657352325781616e-02
-3.356172928331640e-01 8.150377913998101e-01 3.278213975510624e-02
-3.260032388937286e-01 8.345802991630480e-01 3.657358498339747e-02
-2.668294118656664e-01 6.737087703963769e-01 4.679473865095218e-02
        </DataArray>
        <DataArray type="Float64" Name="normal_averaged" NumberOfComponents="3" format="ascii">
0.000000000000000e+00 0.000000000000000e+00 0.000000000000000e+00
0.000000000000000e+00 0.000000000000000e+00 0.000000000000000e+00
0.000000000000000e+00 0.000000000000000e+00 0.000000000000000e+00
0.000000000000000e+00 0.000000000000000e+00 0.000000000000000e+00
0.000000000000000e+00 0.000000000000000e+00 0.000000000000000e+00
0.000000000000000e+00 0.000000000000000e+00 0.000000000000000e+00
0.000000000000000e+00 0.000000000000000e+00 0.000000000000000e+00
0.000000000000000e+00 0.000000000000000e+00 0.000000000000000e+00
0.000000000000000e+00 0.000000000000000e+00 0.000000000000000e+00
0.000000000000000e+00 0.000000000000000e+00 0.000000000000000e+00
0.000000000000000e+00 0.000000000000000e+00 0.000000000000000e+00
0.000000000000000e+00 0.000000000000000e+00 0.000000000000000e+00
0.000000000000000e+00 0.000000000000000e+00 0.000000000000000e+00
0.000000000000000e+00 0.000000000000000e+00 0.000000000000000e+00
0.000000000000000e+00 0.000000000000000e+00 0.000000000000000e+00
0.000000000000000e+00 0.000000000000000e+00 0.000000000000000e+00
0.000000000000000e+00 0.000000000000000e+00 0.000000000000000e+00
0.000000000000000e+00 0.000000000000000e+00 0.000000000000000e+00
0.000000000000000e+00 0.000000000000000e+00 0.000000000000000e+00