<?xml version="1.0" ?> 
<!-- 
# vtk DataFile Version 3.0
-->
<VTKFile type="UnstructuredGrid" version="0.1" compressor="vtkZLibDataCompressor" byte_order="LittleEndian">
  <UnstructuredGrid>
    <FieldData>
      <DataArray type="Float64" Name="TIME" NumberOfTuples="1" format="ascii">
3.000000000000000e+00 
      </DataArray>
    </FieldData>

    <Piece NumberOfPoints="177" NumberOfCells="0" >
      <Points>
        <DataArray type="Float64" NumberOfComponents="3" format="ascii">
8.660254037839999e-01 5.000000000000000e-01 1.100000000000000e+01
5.000000000000000e-01 8.660254037839999e-01 1.100000000000000e+01
5.000000000000000e-01 8.660254037839999e-01 1.150000000000000e+01
8.660254037839999e-01 5.000000000000000e-01 1.150000000000000e+01
7.071067811870000e-01 7.071067811870000e-01 1.100000000000000e+01
5.000000000000000e-01 8.660254037839999e-01 1.125000000000000e+01
7.071067811870000e-01 7.071067811870000e-01 1.150000000000000e+01
8.660254037839999e-01 5.000000000000000e-01 1.125000000000000e+01
7.071067811870000e-01 7.071067811870000e-01 1.125000000000000e+01
5.000000000000000e-01 8.660254037839999e-01 1.100000000000000e+01
0.000000000000000e+00 1.000000000000000e+00 1.100000000000000e+01
0.000000000000000e+00 1.000000000000000e+00 1.150000000000000e+01
5.000000000000000e-01 8.660254037839999e-01 1.150000000000000e+01
2.588190451030000e-01 9.659258262890000e-01 1.100000000000000e+01
0.000000000000000e+00 1.000000000000000e+00 1.125000000000000e+01
2.588190451030000e-01 9.659258262890000e-01 1.150000000000000e+01
5.000000000000000e-01 8.660254037839999e-01 1.125000000000000e+01
2.588190451030000e-01 9.659258262890000e-01 1.125000000000000e+01
5.000000000000000e-01 8.660254037839999e-01 1.050000000000000e+01
0.000000000000000e+00 1.000000000000000e+00 1.050000000000000e+01
0.000000000000000e+00 1.000000000000000e+00 1.100000000000000e+01
5.000000000000000e-01 8.660254037839999e-01 1.100000000000000e+01
2.588190451030000e-01 9.659258262890000e-01 1.050000000000000e+01
0.000000000000000e+00 1.000000000000000e+00 1.075000000000000e+01
2.588190451030000e-01 9.659258262890000e-01 1.100000000000000e+01
5.000000000000000e-01 8.660254037839999e-01 1.075000000000000e+01
2.588190451030000e-01 9.659258262890000e-01 1.075000000000000e+01
8.660254037839999e-01 5.000000000000000e-01 1.000000000000000e+01
5.000000000000000e-01 8.660254037839999e-01 1.000000000000000e+01
5.000000000000000e-01 8.660254037839999e-01 1.050000000000000e+01
8.660254037839999e-01 5.000000000000000e-01 1.050000000000000e+01
7.071067811870000e-01 7.071067811870000e-01 1.000000000000000e+01
5.000000000000000e-01 8.660254037839999e-01 1.025000000000000e+01
7.071067811870000e-01 7.071067811870000e-01 1.050000000000000e+01
8.660254037839999e-01 5.000000000000000e-01 1.025000000000000e+01
7.071067811870000e-01 7.071067811870000e-01 1.025000000000000e+01
1.000000000000000e+00 0.000000000000000e+00 1.000000000000000e+01
8.660254037839999e-01 5.000000000000000e-01 1.000000000000000e+01
8.660254037839999e-01 5.000000000000000e-01 1.050000000000000e+01
1.000000000000000e+00 0.000000000000000e+00 1.050000000000000e+01
9.659258262890000e-01 2.588190451030000e-01 1.000000000000000e+01
8.660254037839999e-01 5.000000000000000e-01 1.025000000000000e+01
9.659258262890000e-01 2.588190451030000e-01 1.050000000000000e+01
1.000000000000000e+00 0.000000000000000e+00 1.025000000000000e+01
9.659258262890000e-01 2.588190451030000e-01 1.025000000000000e+01
8.660254037839999e-01 5.000000000000000e-01 1.050000000000000e+01
5.000000000000000e-01 8.660254037839999e-01 1.050000000000000e+01
5.000000000000000e-01 8.660254037839999e-01 1.100000000000000e+01
8.660254037839999e-01 5.000000000000000e-01 1.100000000000000e+01
7.071067811870000e-01 7.071067811870000e-01 1.050000000000000e+01
5.000000000000000e-01 8.660254037839999e-01 1.075000000000000e+01
7.071067811870000e-01 7.071067811870000e-01 1.100000000000000e+01
8.660254037839999e-01 5.000000000000000e-01 1.075000000000000e+01
7.071067811870000e-01 7.071067811870000e-01 1.075000000000000e+01
1.000000000000000e+00 0.000000000000000e+00 1.050000000000000e+01
8.660254037839999e-01 5.000000000000000e-01 1.050000000000000e+01
8.660254037839999e-01 5.000000000000000e-01 1.100000000000000e+01
1.000000000000000e+00 0.000000000000000e+00 1.100000000000000e+01
9.659258262890000e-01 2.588190451030000e-01 1.050000000000000e+01
8.660254037839999e-01 5.000000000000000e-01 1.075000000000000e+01
9.659258262890000e-01 2.588190451030000e-01 1.100000000000000e+01
1.000000000000000e+00 0.000000000000000e+00 1.075000000000000e+01
9.659258262890000e-01 2.588190451030000e-01 1.075000000000000e+01
1.500000000000000e+00 3.000000000000000e-01 1.300000000000000e+01
1.500000000000000e+00 3.000000000000000e-01 1.350000000000000e+01
2.000000000000000e+00 3.000000000000000e-01 1.350000000000000e+01
2.000000000000000e+00 3.000000000000000e-01 1.300000000000000e+01
1.500000000000000e+00 3.000000000000000e-01 1.325000000000000e+01
1.750000000000000e+00 3.000000000000000e-01 1.350000000000000e+01
2.000000000000000e+00 3.000000000000000e-01 1.325000000000000e+01
1.750000000000000e+00 3.000000000000000e-01 1.300000000000000e+01
1.750000000000000e+00 3.000000000000000e-01 1.325000000000000e+01
1.500000000000000e+00 3.000000000000000e-01 1.250000000000000e+01
1.500000000000000e+00 3.000000000000000e-01 1.300000000000000e+01
2.000000000000000e+00 3.000000000000000e-01 1.300000000000000e+01
2.000000000000000e+00 3.000000000000000e-01 1.250000000000000e+01
1.500000000000000e+00 3.000000000000000e-01 1.275000000000000e+01
1.750000000000000e+00 3.000000000000000e-01 1.300000000000000e+01
2.000000000000000e+00 3.000000000000000e-01 1.275000000000000e+01
1.750000000000000e+00 3.000000000000000e-01 1.250000000000000e+01
1.750000000000000e+00 3.000000000000000e-01 1.275000000000000e+01
0.000000000000000e+00 3.000000000000000e-01 1.250000000000000e+01
0.000000000000000e+00 3.000000000000000e-01 1.300000000000000e+01
5.000000000000000e-01 3.000000000000000e-01 1.300000000000000e+01
5.000000000000000e-01 3.000000000000000e-01 1.250000000000000e+01
0.000000000000000e+00 3.000000000000000e-01 1.275000000000000e+01
2.500000000000000e-01 3.000000000000000e-01 1.300000000000000e+01
5.000000000000000e-01 3.000000000000000e-01 1.275000000000000e+01
2.500000000000000e-01 3.000000000000000e-01 1.250000000000000e+01
2.500000000000000e-01 3.000000000000000e-01 1.275000000000000e+01
1.000000000000000e+00 3.000000000000000e-01 1.250000000000000e+01
1.000000000000000e+00 3.000000000000000e-01 1.300000000000000e+01
1.500000000000000e+00 3.000000000000000e-01 1.300000000000000e+01
1.500000000000000e+00 3.000000000000000e-01 1.250000000000000e+01
1.000000000000000e+00 3.000000000000000e-01 1.275000000000000e+01
1.250000000000000e+00 3.000000000000000e-01 1.300000000000000e+01
1.500000000000000e+00 3.000000000000000e-01 1.275000000000000e+01
1.250000000000000e+00 3.000000000000000e-01 1.250000000000000e+01
1.250000000000000e+00 3.000000000000000e-01 1.275000000000000e+01
5.000000000000000e-01 3.000000000000000e-01 1.300000000000000e+01
5.000000000000000e-01 3.000000000000000e-01 1.350000000000000e+01
1.000000000000000e+00 3.000000000000000e-01 1.350000000000000e+01
1.000000000000000e+00 3.000000000000000e-01 1.300000000000000e+01
5.000000000000000e-01 3.000000000000000e-01 1.325000000000000e+01
7.500000000000000e-01 3.000000000000000e-01 1.350000000000000e+01
1.000000000000000e+00 3.000000000000000e-01 1.325000000000000e+01
7.500000000000000e-01 3.000000000000000e-01 1.300000000000000e+01
7.500000000000000e-01 3.000000000000000e-01 1.325000000000000e+01
1.000000000000000e+00 3.000000000000000e-01 1.300000000000000e+01
1.000000000000000e+00 3.000000000000000e-01 1.350000000000000e+01
1.500000000000000e+00 3.000000000000000e-01 1.350000000000000e+01
1.500000000000000e+00 3.000000000000000e-01 1.300000000000000e+01
1.000000000000000e+00 3.000000000000000e-01 1.325000000000000e+01
1.250000000000000e+00 3.000000000000000e-01 1.350000000000000e+01
1.500000000000000e+00 3.000000000000000e-01 1.325000000000000e+01
1.250000000000000e+00 3.000000000000000e-01 1.300000000000000e+01
1.250000000000000e+00 3.000000000000000e-01 1.325000000000000e+01
0.000000000000000e+00 3.000000000000000e-01 1.300000000000000e+01
0.000000000000000e+00 3.000000000000000e-01 1.350000000000000e+01
5.000000000000000e-01 3.000000000000000e-01 1.350000000000000e+01
5.000000000000000e-01 3.000000000000000e-01 1.300000000000000e+01
0.000000000000000e+00 3.000000000000000e-01 1.325000000000000e+01
2.500000000000000e-01 3.000000000000000e-01 1.350000000000000e+01
5.000000000000000e-01 3.000000000000000e-01 1.325000000000000e+01
2.500000000000000e-01 3.000000000000000e-01 1.300000000000000e+01
2.500000000000000e-01 3.000000000000000e-01 1.325000000000000e+01
5.000000000000000e-01 3.000000000000000e-01 1.250000000000000e+01
5.000000000000000e-01 3.000000000000000e-01 1.300000000000000e+01
1.000000000000000e+00 3.000000000000000e-01 1.300000000000000e+01
1.000000000000000e+00 3.000000000000000e-01 1.250000000000000e+01
5.000000000000000e-01 3.000000000000000e-01 1.275000000000000e+01
7.500000000000000e-01 3.000000000000000e-01 1.300000000000000e+01
1.000000000000000e+00 3.000000000000000e-01 1.275000000000000e+01
7.500000000000000e-01 3.000000000000000e-01 1.250000000000000e+01
7.500000000000000e-01 3.000000000000000e-01 1.275000000000000e+01
0.000000000000000e+00 1.000000000000000e+00 1.550000000000000e+01
4.329390516020000e-01 9.014231956180000e-01 1.574976147080000e+01
5.000000000000000e-01 8.660254037839999e-01 1.500000000000000e+01
7.282793318550000e-01 6.852803913680000e-01 1.548410264420000e+01
8.660254037839999e-01 5.000000000000000e-01 1.500000000000000e+01
5.000000000000000e-01 8.660254037839999e-01 1.500000000000000e+01
8.660254037839999e-01 5.000000000000000e-01 1.500000000000000e+01
7.282793318550000e-01 6.852803913680000e-01 1.548410264420000e+01
9.504792740630000e-01 3.107879495360000e-01 1.574983937880000e+01
9.504792740630000e-01 3.107879495360000e-01 1.574983937880000e+01
7.283520826140000e-01 6.852030675290000e-01 1.601496824100000e+01
8.660254037839999e-01 5.000000000000000e-01 1.650000000000000e+01
7.282793318550000e-01 6.852803913680000e-01 1.548410264420000e+01
4.329390516020000e-01 9.014231956180000e-01 1.574976147080000e+01
7.283520826140000e-01 6.852030675290000e-01 1.601496824100000e+01
7.282793318550000e-01 6.852803913680000e-01 1.548410264420000e+01
5.000000000000000e-01 8.660254037839999e-01 1.500000000000000e+01
4.329390516020000e-01 9.014231956180000e-01 1.574976147080000e+01
1.000000000000000e+00 0.000000000000000e+00 1.550000000000000e+01
1.000000000000000e+00 0.000000000000000e+00 1.500000000000000e+01
9.504792740630000e-01 3.107879495360000e-01 1.574983937880000e+01
7.282793318550000e-01 6.852803913680000e-01 1.548410264420000e+01
7.283520826140000e-01 6.852030675290000e-01 1.601496824100000e+01
9.504792740630000e-01 3.107879495360000e-01 1.574983937880000e+01
4.329390516020000e-01 9.014231956180000e-01 1.574976147080000e+01
5.000000000000000e-01 8.660254037839999e-01 1.650000000000000e+01
7.283520826140000e-01 6.852030675290000e-01 1.601496824100000e+01
9.504792740630000e-01 3.107879495360000e-01 1.574983937880000e+01
1.000000000000000e+00 0.000000000000000e+00 1.500000000000000e+01
8.660254037839999e-01 5.000000000000000e-01 1.500000000000000e+01
4.329390516020000e-01 9.014231956180000e-01 1.574976147080000e+01
0.000000000000000e+00 1.000000000000000e+00 1.550000000000000e+01
0.000000000000000e+00 1.000000000000000e+00 1.600000000000000e+01
0.000000000000000e+00 1.000000000000000e+00 1.650000000000000e+01
5.000000000000000e-01 8.660254037839999e-01 1.650000000000000e+01
0.000000000000000e+00 1.000000000000000e+00 1.600000000000000e+01
7.283520826140000e-01 6.852030675290000e-01 1.601496824100000e+01
5.000000000000000e-01 8.660254037839999e-01 1.650000000000000e+01
8.660254037839999e-01 5.000000000000000e-01 1.650000000000000e+01
4.329390516020000e-01 9.014231956180000e-01 1.574976147080000e+01
0.000000000000000e+00 1.000000000000000e+00 1.600000000000000e+01
5.000000000000000e-01 8.660254037839999e-01 1.650000000000000e+01
        </DataArray>
      </Points>

      <Cells>
        <DataArray type="Int32" Name="connectivity" format="ascii">

        </DataArray>
        <DataArray type="Int32" Name="offsets" format="ascii">

        </DataArray>
        <DataArray type="UInt8" Name="types" format="ascii">

        </DataArray>
      </Cells>

  <PointData>
        <DataArray type="Int32" Name="coupling_id" format="ascii">
5
5
5
5
5
5
5
5
5
5
5
5
5
5
5
5
5
5
5
5
5
5
5
5
5
5
5
5
5
5
5
5
5
5
5
5
5
5
5
5
5
5
5
5
5
5
5
5
5
5
5
5
5
5
5
5
5
5
5
5
5
5
5
6
6
6
6
6
6
6
6
6
6
6
6
6
6
6
6
6
6
6
6
6
6
6
6
6
6
6
6
6
6
6
6
6
6
6
6
6
6
6
6
6
6
6
6
6
6
6
6
6
6
6
6
6
6
6
6
6
6
6
6
6
6
6
6
6
6
6
6
6
6
6
6
7
7
7
7
7
7
7
7
7
7
7
7
7
7
7
7
7
7
7
7
7
7
7
7
7
7
7
7
7
7
7
7
7
7
7
7
7
7
7
7
7
7
        </DataArray>
        <DataArray type="Float64" Name="displacement" NumberOfComponents="3" format="ascii">
5.359808150462497e-02 1.526540490798617e-01 -7.438919310427394e-04
-1.005397380204920e-02 5.314167083375121e-02 -4.350863242594372e-03
-9.935250488181724e-03 2.896223693438615e-02 8.212504293023670e-04
3.396054363559231e-02 1.068455240932497e-01 -1.379018880896865e-03
1.141485194092906e-02 1.030513490427160e-01 -1.647380740148918e-03
-9.365836141890682e-03 4.266072796506315e-02 -1.810222617637081e-03
2.426426791153125e-03 6.714465671075442e-02 4.797948021302290e-04
4.491003001784655e-02 1.291552841844021e-01 -1.319788254878773e-03
8.025666706684365e-03 8.540885733820902e-02 -5.954188302403907e-04
-1.005397380204920e-02 5.314167083375121e-02 -4.350863242594372e-03
0.000000000000000e+00 0.000000000000000e+00 0.000000000000000e+00
0.000000000000000e+00 0.000000000000000e+00 0.000000000000000e+00
-9.935250488181724e-03 2.896223693438615e-02 8.212504293023670e-04
-1.115275871006877e-02 1.520401846554220e-02 -3.186534565569943e-03
0.000000000000000e+00 0.000000000000000e+00 0.000000000000000e+00
-5.155888670755338e-03 7.278526249329786e-03 2.213410709147823e-03
-9.365836141890682e-03 4.266072796506315e-02 -1.810222617637081e-03
-8.206209130145081e-03 1.338543559626260e-02 -9.735392575116464e-05
-9.927907211260856e-03 6.307194246623915e-02 -6.003289002778800e-03
0.000000000000000e+00 0.000000000000000e+00 0.000000000000000e+00
0.000000000000000e+00 0.000000000000000e+00 0.000000000000000e+00
-1.005397380204920e-02 5.314167083375121e-02 -4.350863242594372e-03
-1.122988160857744e-02 1.641842969668472e-02 -4.663083067770302e-03
0.000000000000000e+00 0.000000000000000e+00 0.000000000000000e+00
-1.115275871006877e-02 1.520401846554220e-02 -3.186534565569943e-03
-9.585054659091041e-03 5.985533722564662e-02 -5.287654002904318e-03
-1.129799976090604e-02 1.651506065449859e-02 -4.329887408507815e-03
1.014401933274397e-01 2.440031265051887e-01 1.100158956526265e-02
-1.068165426211082e-02 6.369394386413563e-02 -8.564584392528829e-03
-9.927907211260856e-03 6.307194246623915e-02 -6.003289002778800e-03
7.389923125313980e-02 1.955121217535036e-01 -6.999314948060942e-03
2.469082943349188e-02 1.474866093945051e-01 -3.541063743643491e-03
-9.207640143464646e-03 6.521871772453691e-02 -7.169938399135489e-03
1.803682988785626e-02 1.289523568819382e-01 -6.396877007208701e-03
9.063688072826703e-02 2.197157416979996e-01 1.184888086035230e-03
2.155184574819857e-02 1.400934299381079e-01 -3.851318752072785e-03
3.762624156880130e-01 3.581842502926375e-01 3.497031427681385e-02
1.014401933274397e-01 2.440031265051887e-01 1.100158956526265e-02
7.389923125313980e-02 1.955121217535036e-01 -6.999314948060942e-03
2.526496317663955e-01 2.850251396679286e-01 6.351828230860335e-03
2.418144305358829e-01 3.171759079818798e-01 2.640994493303239e-02
9.063688072826703e-02 2.197157416979996e-01 1.184888086035230e-03
1.556065429345490e-01 2.544179401281855e-01 9.726289941074384e-03
2.989212374134376e-01 3.229552400954787e-01 2.035007296302993e-02
1.985023203136655e-01 2.839574799213088e-01 1.227591559590380e-02
7.389923125313980e-02 1.955121217535036e-01 -6.999314948060942e-03
-9.927907211260856e-03 6.307194246623915e-02 -6.003289002778800e-03
-1.005397380204920e-02 5.314167083375121e-02 -4.350863242594372e-03
5.359808150462497e-02 1.526540490798617e-01 -7.438919310427394e-04
1.803682988785626e-02 1.289523568819382e-01 -6.396877007208701e-03
-9.585054659091041e-03 5.985533722564662e-02 -5.287654002904318e-03
1.141485194092906e-02 1.030513490427160e-01 -1.647380740148918e-03
6.315622149185363e-02 1.763603266541899e-01 -1.016483192481488e-03
1.734463837086553e-02 1.199550981287220e-01 -5.238486560900313e-03
2.526496317663955e-01 2.850251396679286e-01 6.351828230860335e-03
7.389923125313980e-02 1.955121217535036e-01 -6.999314948060942e-03
5.359808150462497e-02 1.526540490798617e-01 -7.438919310427394e-04
1.861264158022531e-01 2.117775932064146e-01 -1.600448725228709e-02
1.556065429345490e-01 2.544179401281855e-01 9.726289941074384e-03
6.315622149185363e-02 1.763603266541899e-01 -1.016483192481488e-03
1.142129811704347e-01 1.910980978083127e-01 -2.914366701492810e-03
2.144238829504779e-01 2.466581864478997e-01 -6.496441134736131e-03
1.322536033060775e-01 2.218581499809524e-01 2.970127076164175e-03
-2.195303987526376e-01 5.760230313750672e-01 4.867049705168824e-02
-2.835859856893623e-01 6.422764236429961e-01 3.973089693672627e-02
-4.033398338567942e-01 9.988992970060409e-01 1.552016243542731e-02
-3.231887126656712e-01 8.779437617486250e-01 4.045412579660201e-02
-2.437652279429492e-01 6.117950744663598e-01 4.856540320037261e-02
-3.373624418884322e-01 8.190665807872020e-01 3.244444742979091e-02
-3.612950585017676e-01 9.265812227773158e-01 3.029202340933068e-02
-2.717684192028307e-01 7.241111961641957e-01 4.459690531562366e-02
-3.036172920154887e-01 7.714392865202695e-01 3.991844617386597e-02
-1.571300325984102e-01 5.034513715274311e-01 5.485580220603836e-02
-2.195303987526376e-01 5.760230313750672e-01 4.867049705168824e-02
-3.231887126656712e-01 8.779437617486250e-01 4.045412579660201e-02
-2.523073790297372e-01 7.886807445656052e-01 5.694103043930809e-02
-1.886970896794555e-01 5.404449220943948e-01 5.136806403391603e-02
-2.717684192028307e-01 7.241111961641957e-01 4.459690531562366e-02
-2.866174265975501e-01 8.313449850107053e-01 4.989176227163661e-02
-2.044854187946876e-01 6.433163116082088e-01 5.609836526118528e-02
-2.374265236302640e-01 6.841920180694532e-01 5.076674995573427e-02
0.000000000000000e+00 0.000000000000000e+00 0.000000000000000e+00
0.000000000000000e+00 0.000000000000000e+00 0.000000000000000e+00
-5.567660108740097e-02 9.207686273457455e-02 1.395716981225448e-02
-1.390692662304588e-02 5.458401294591764e-02 1.143827805948305e-02
0.000000000000000e+00 0.000000000000000e+00 0.000000000000000e+00
-2.739334803105029e-02 2.937413717659076e-02 4.548398697053813e-03
-3.481761240914222e-02 7.451835056336092e-02 1.133278441043117e-02
-2.567790772417394e-03 4.787549011636860e-03 5.533612672383725e-04
-1.560714455163581e-02 2.180506379820452e-02 1.998264906692526e-03
-7.017977535997899e-02 2.464398866088610e-01 3.949302085999484e-02
-1.221475793541158e-01 3.037929230163011e-01 4.164026092155027e-02
-2.195303987526376e-01 5.760230313750672e-01 4.867049705168824e-02
-1.571300325984102e-01 5.034513715274311e-01 5.485580220603836e-02
-9.969840235940297e-02 2.762089057143858e-01 3.945084189694192e-02
-1.668069474866551e-01 4.367323378361697e-01 4.999105480467136e-02
-1.886970896794555e-01 5.404449220943948e-01 5.136806403391603e-02
-1.107340396929402e-01 3.707116409527674e-01 4.991618677202680e-02
-1.423101405261984e-01 4.034430512125995e-01 4.779047176054441e-02
-5.567660108740097e-02 9.207686273457455e-02 1.395716981225448e-02
-8.614513279349817e-02 9.570548149321539e-02 2.247048082459813e-02
-1.752913245253541e-01 3.345500267158113e-01 3.786593790603732e-02
-1.221475793541158e-01 3.037929230163011e-01 4.164026092155027e-02
-7.239086997817684e-02 9.776746960612509e-02 1.777184567039569e-02
-1.290204808378809e-01 2.041644789141606e-01 3.088378051364415e-02
-1.519096815025056e-01 3.210874522539049e-01 3.764245912146258e-02
-8.616644686459329e-02 1.853765561346008e-01 2.586380273860023e-02
-1.099166924624694e-01 1.987730828050342e-01 2.773169901920802e-02
-1.221475793541158e-01 3.037929230163011e-01 4.164026092155027e-02
-1.752913245253541e-01 3.345500267158113e-01 3.786593790603732e-02
-2.835859856893623e-01 6.422764236429961e-01 3.973089693672627e-02
-2.195303987526376e-01 5.760230313750672e-01 4.867049705168824e-02
-1.519096815025056e-01 3.210874522539049e-01 3.764245912146258e-02
-2.282676554630114e-01 4.818893251040831e-01 4.030579621659847e-02
-2.437652279429492e-01 6.117950744663598e-01 4.856540320037261e-02
-1.668069474866551e-01 4.367323378361697e-01 4.999105480467136e-02
-1.952219072675974e-01 4.615790122355639e-01 4.698518190552647e-02
0.000000000000000e+00 0.000000000000000e+00 0.000000000000000e+00
0.000000000000000e+00 0.000000000000000e+00 0.000000000000000e+00
-8.614513279349817e-02 9.570548149321539e-02 2.247048082459813e-02
-5.567660108740097e-02 9.207686273457455e-02 1.395716981225448e-02
0.000000000000000e+00 0.000000000000000e+00 0.000000000000000e+00
-4.299785695166178e-02 2.672610033680045e-02 1.616650324012703e-02
-7.239086997817684e-02 9.776746960612509e-02 1.777184567039569e-02
-2.739334803105029e-02 2.937413717659076e-02 4.548398697053813e-03
-3.518752180386905e-02 3.175130850876651e-02 8.268848485256441e-03
-1.390692662304588e-02 5.458401294591764e-02 1.143827805948305e-02
-5.567660108740097e-02 9.207686273457455e-02 1.395716981225448e-02
-1.221475793541158e-01 3.037929230163011e-01 4.164026092155027e-02
-7.017977535997899e-02 2.464398866088610e-01 3.949302085999484e-02
-3.481761240914222e-02 7.451835056336092e-02 1.133278441043117e-02
-8.616644686459329e-02 1.853765561346008e-01 2.586380273860023e-02
-9.969840235940297e-02 2.762089057143858e-01 3.945084189694192e-02
-3.780396718846391e-02 1.398047683563696e-01 2.638870530881654e-02
-6.178968832574361e-02 1.636280221340166e-01 2.566031007171610e-02
0.000000000000000e+00 0.000000000000000e+00 0.000000000000000e+00
-1.354157439582704e-02 2.633325510423512e-02 -8.684607854796411e-03
-7.224652028351985e-04 2.679159159019129e-02 -5.900216477144227e-03
1.418466798523832e-02 8.056985825132379e-02 -3.237015107114161e-03
6.490547478326469e-02 1.118333761371320e-01 4.323595364335020e-03
-7.224652028351985e-04 2.679159159019129e-02 -5.900216477144227e-03
6.490547478326469e-02 1.118333761371320e-01 4.323595364335020e-03
1.418466798523832e-02 8.056985825132379e-02 -3.237015107114161e-03
7.137010691904921e-02 1.377744205096809e-01 4.010331322955807e-03
7.137010691904921e-02 1.377744205096809e-01 4.010331322955807e-03
7.871168081520663e-03 8.171827032333623e-02 -6.213828191100390e-03
2.842764634276884e-02 1.179644127995365e-01 9.473655921183877e-04
1.418466798523832e-02 8.056985825132379e-02 -3.237015107114161e-03
-1.354157439582704e-02 2.633325510423512e-02 -8.684607854796411e-03
7.871168081520663e-03 8.171827032333623e-02 -6.213828191100390e-03
1.418466798523832e-02 8.056985825132379e-02 -3.237015107114161e-03
-7.224652028351985e-04 2.679159159019129e-02 -5.900216477144227e-03
-1.354157439582704e-02 2.633325510423512e-02 -8.684607854796411e-03
1.652551662296360e-01 1.642293199575589e-01 1.396664472355269e-02
2.221827769318507e-01 1.746026261184291e-01 2.262814217060338e-02
7.137010691904921e-02 1.377744205096809e-01 4.010331322955807e-03
1.418466798523832e-02 8.056985825132379e-02 -3.237015107114161e-03
7.871168081520663e-03 8.171827032333623e-02 -6.213828191100390e-03
7.137010691904921e-02 1.377744205096809e-01 4.010331322955807e-03
-1.354157439582704e-02 2.633325510423512e-02 -8.684607854796411e-03
-7.095230827281418e-03 5.666656141796533e-02 -9.122933563357805e-03
7.871168081520663e-03 8.171827032333623e-02 -6.213828191100390e-03
7.137010691904921e-02 1.377744205096809e-01 4.010331322955807e-03
2.221827769318507e-01 1.746026261184291e-01 2.262814217060338e-02
6.490547478326469e-02 1.118333761371320e-01 4.323595364335020e-03
-1.354157439582704e-02 2.633325510423512e-02 -8.684607854796411e-03
0.000000000000000e+00 0.000000000000000e+00 0.000000000000000e+00
0.000000000000000e+00 0.000000000000000e+00 0.000000000000000e+00
0.000000000000000e+00 0.000000000000000e+00 0.000000000000000e+00
-7.095230827281418e-03 5.666656141796533e-02 -9.122933563357805e-03
0.000000000000000e+00 0.000000000000000e+00 0.000000000000000e+00
7.871168081520663e-03 8.171827032333623e-02 -6.213828191100390e-03
-7.095230827281418e-03 5.666656141796533e-02 -9.122933563357805e-03
2.842764634276884e-02 1.179644127995365e-01 9.473655921183877e-04
-1.354157439582704e-02 2.633325510423512e-02 -8.684607854796411e-03
0.000000000000000e+00 0.000000000000000e+00 0.000000000000000e+00
-7.095230827281418e-03 5.666656141796533e-02 -9.122933563357805e-03
        </DataArray>
        <DataArray type="Float64" Name="normal_averaged" NumberOfComponents="3" format="ascii">
0.000000000000000e+00 0.000000000000000e+00 0.000000000000000e+00
0.000000000000000e+00 0.000000000000000e+00 0.000000000000000e+00
0.000000000000000e+00 0.000000000000000e+00 0.000000000000000e+00
0.000000000000000e+00 0.000000000000000e+00 0.000000000000000e+00
0.000000000000000e+00 0.000000000000000e+00 0.000000000000000e+00
0.000000000000000e+00 0.000000000000000e+00 0.000000000000000e+00
0.000000000000000e+00 0.000000000000000e+00 0.000000000000000e+00
0.000000000000000e+00 0.000000000000000e+00 0.000000000000000e+00
0.000000000000000e+00 0.000000000000000e+00 0.000000000000000e+00
0.000000000000000e+00 0.000000000000000e+00 0.000000000000000e+00
0.000000000000000e+00 0.000000000000000e+00 0.000000000000000e+00
0.000000000000000e+00 0.000000000000000e+00 0.000000000000000e+00
0.000000000000000e+00 0.000000000000000e+00 0.000000000000000e+00
0.000000000000000e+00 0.000000000000000e+00 0.000000000000000e+00
0.000000000000000e+00 0.000000000000000e+00 0.000000000000000e+00
0.000000000000000e+00 0.000000000000000e+00 0.000000000000000e+00
0.000000000000000e+00 0.000000000000000e+00 0.000000000000000e+00
0.000000000000000e+00 0.000000000000000e+00 0.000000000000000e+00
0.000000000000000e+00 0.000000000000000e+00 0.000000000000000e+00
0.000000000000000e+00 0.000000000000000e+00 0.000000000000000e+00
0.000000000000000e+00 0.000000000000000e+00 0.000000000000000e+00
0.000000000000000e+00 0.000000000000000e+00 0.000000000000000e+00
0.000000000000000e+00 0.000000000000000e+00 0.000000000000000e+00
0.000000000000000e+00 0.000000000000000e+00 0.000000000000000e+00
0.000000000000000e+00 0.000000000000000e+00 0.000000000000000e+00
0.000000000000000e+00 0.000000000000000e+00 0.000000000000000e+00
0.000000000000000e+00 0.000000000000000e+00 0.000000000000000e+00
0.000000000000000e+00 0.000000000000000e+00 0.000000000000000e+00
0.000000000000000e+00 0.000000000000000e+00 0.000000000000000e+00
0.000000000000000e+00 0.000000000000000e+00 0.000000000000000e+00
0.000000000000000e+00 0.000000000000000e+00 0.000000000000000e+00
0.000000000000000e+00 0.000000000000000e+00 0.000000000000000e+00
0.000000000000000e+00 0.000000000000000e+00 0.000000000000000e+00
0.000000000000000e+00 0.000000000000000e+00 0.000000000000000e+00
0.000000000000000e+00 0.000000000000000e+00 0.000000000000000e+00
0.000000000000000e+00 0.000000000000000e+00 0.000000000000000e+00
0.000000000000000e+00 0.000000000000000e+00 0.000000000000000e+00
0.000000000000000e+00 0.000000000000000e+00 0.000000000000000e+00
0.000000000000000e+00 0.000000000000000e+00 0.000000000000000e+00
0.000000000000000e+00 0.000000000000000e+00 0.000000000000000e+00
0.000000000000000e+00 0.000000000000000e+00 0.000000000000000e+00
0.000000000000000e+00 0.000000000000000e+00 0.000000000000000e+00
0.000000000000000e+00 0.000000000000000e+00 0.000000000000000e+00
0.000000000000000e+00 0.000000000000000e+00 0.000000000000000e+00
0.000000000000000e+00 0.000000000000000e+00 0.000000000000000e+00
0.000000000000000e+00 0.000000000000000e+00 0.000000000000000e+00
0.000000000000000e+00 0.000000000000000e+00 0.000000000000000e+00
0.000000000000000e+00 0.000000000000000e+00 0.000000000000000e+00
0.000000000000000e+00 0.000000000000000e+00 0.000000000000000e+00
0.000000000000000e+00 0.000000000000000e+00 0.000000000000000e+00
0.000000000000000e+00 0.000000000000000e+00 0.000000000000000e+00
0.000000000000000e+00 0.000000000000000e+00 0.000000000000000e+00
0.000000000000000e+00 0.000000000000000e+00 0.000000000000000e+00
0.000000000000000e+00 0.000000000000000e+00 0.000000000000000e+00
0.000000000000000e+00 0.000000000000000e+00 0.000000000000000e+00
0.000000000000000e+00 0.000000000000000e+00 0.000000000000000e+00
0.000000000000000e+00 0.000000000000000e+00 0.000000000000000e+00
0.000000000000000e+00 0.000000000000000e+00 0.000000000000000e+00
0.000000000000000e+00 0.000000000000000e+00 0.000000000000000e+00
0.000000000000000e+00 0.000000000000000e+00 0.000000000000000e+00
0.000000000000000e+00 0.000000000000000e+00 0.000000000000000e+00
0.000000000000000e+00 0.000000000000000e+00 0.000000000000000e+00
0.000000000000000e+00 0.000000000000000e+00 0.000000000000000e+00
0.000000000000000e+00 0.000000000000000e+00 0.000000000000000e+00
0.000000000000000e+00 0.000000000000000e+00 0.000000000000000e+00
0.000000000000000e+00 0.000000000000000e+00 0.000000000000000e+00
0.000000000000000e+00 0.000000000000000e+00 0.000000000000000e+00
0.000000000000000e+00 0.000000000000000e+00 0.000000000000000e+00
0.000000000000000e+00 0.000000000000000e+00 0.000000000000000e+00
0.000000000000000e+00 0.000000000000000e+00 0.000000000000000e+00
0.000000000000000e+00 0.000000000000000e+00 0.000000000000000e+00
0.000000000000000e+00 0.000000000000000e+00 0.000000000000000e+00
0.000000000000000e+00 0.000000000000000e+00 0.000000000000000e+00
0.000000000000000e+00 0.000000000000000e+00 0.000000000000000e+00
0.000000000000000e+00 0.000000000000000e+00 0.000000000000000e+00