<?xml version="1.0" ?> 
<!-- 
# vtk DataFile Version 3.0
-->
<VTKFile type="UnstructuredGrid" version="0.1" compressor="vtkZLibDataCompressor" byte_order="LittleEndian">
  <UnstructuredGrid>
    <FieldData>
      <DataArray type="Float64" Name="TIME" NumberOfTuples="1" format="ascii">
3.000000000000000e+00 
      </DataArray>
    </FieldData>

    <Piece NumberOfPoints="432" NumberOfCells="72" >
      <Points>
        <DataArray type="Float64" NumberOfComponents="3" format="ascii">
9.973931072023355e-01 7.070273513256668e-02 1.240327285323417e-16
9.866136483985297e-01 1.604856085446792e-01 9.053228542927601e-02
9.677380497715523e-01 2.489458430537850e-01 1.810742716976267e-01
9.410473093872265e-01 3.354050493183094e-01 2.716221624152881e-01
9.068224253113741e-01 4.191848379966776e-01 3.621721611924967e-01
8.653443956098175e-01 4.996068197473151e-01 4.527204716394890e-01
8.653443956098175e-01 4.996068197473150e-01 4.527204716394889e-01
8.606057705834163e-01 5.077844949056293e-01 4.621765142449014e-01
8.557914246230212e-01 5.159173770345568e-01 4.716324927077273e-01
8.509016777839989e-01 5.240046934520907e-01 4.810884027038981e-01
8.459368501217164e-01 5.320456714762245e-01 4.905442399093451e-01
8.408972616915400e-01 5.400395384249512e-01 4.999999999999998e-01
8.408972616915398e-01 5.400395384249513e-01 5.000000000000001e-01
8.170876849900769e-01 5.757158235670550e-01 5.429253422855892e-01
7.917739045685842e-01 6.103329816742564e-01 5.858486016436822e-01
7.649858644473689e-01 6.438187214866109e-01 6.287693735192811e-01
7.367535086467385e-01 6.761007517441738e-01 6.716872533573868e-01
7.071067811870000e-01 7.071067811870000e-01 7.146018366030000e-01
7.071067811870000e-01 7.071067811870000e-01 7.146018366030000e-01
6.690967767716571e-01 7.430949925337158e-01 7.669700274458292e-01
6.292104186336654e-01 7.769672706542470e-01 8.193429944767485e-01
5.875790665592957e-01 8.086692045435621e-01 8.717200025825732e-01
5.443340803348191e-01 8.381463831966294e-01 9.241003166501178e-01
4.996068197465068e-01 8.653443956084172e-01 9.764832015661981e-01
4.996068197465065e-01 8.653443956084172e-01 9.764832015661981e-01
4.955229120708071e-01 8.676730276519554e-01 9.811865337838427e-01
4.914282091254285e-01 8.699828082651091e-01 9.858898802681229e-01
4.873228059890759e-01 8.722736980649881e-01 9.905932404869610e-01
4.832067977404554e-01 8.745456576687038e-01 9.952966139082793e-01
4.790802794582723e-01 8.767986476933665e-01 1.000000000000000e+00
4.790802794582724e-01 8.767986476933666e-01 1.000000000000000e+00
3.890256016970581e-01 9.201415524530959e-01 1.100009484049564e+00
2.951762298479049e-01 9.545117333401657e-01 1.200019341012199e+00
1.984461689335316e-01 9.795305970780340e-01 1.300024455950053e+00
9.974942397665695e-02 9.948195503901592e-01 1.400019713925271e+00
0.000000000000000e+00 1.000000000000000e+00 1.500000000000000e+00
1.000000000000000e-01 3.000000000000000e-01 2.500000000000000e+00
1.800000000000127e-01 3.000000000000000e-01 2.541904761904731e+00
2.600000000000177e-01 3.000000000000000e-01 2.583809523809476e+00
3.400000000000162e-01 3.000000000000000e-01 2.625714285714233e+00
4.200000000000099e-01 3.000000000000000e-01 2.667619047619000e+00
4.999999999999999e-01 3.000000000000000e-01 2.709523809523774e+00
4.999999999999999e-01 3.000000000000000e-01 2.709523809523774e+00
5.999999999999958e-01 2.999999999999999e-01 2.761904761904752e+00
6.999999999999910e-01 3.000000000000000e-01 2.814285714285731e+00
7.999999999999883e-01 3.000000000000000e-01 2.866666666666708e+00
8.999999999999901e-01 3.000000000000000e-01 2.919047619047674e+00
9.999999999999996e-01 2.999999999999999e-01 2.971428571428627e+00
1.054545454545373e+00 3.000000000000000e-01 3.000000000000000e+00
1.073636363636297e+00 3.000000000000000e-01 3.010000000000002e+00
1.092727272727222e+00 3.000000000000000e-01 3.020000000000003e+00
1.111818181818148e+00 3.000000000000000e-01 3.030000000000003e+00
1.130909090909074e+00 3.000000000000000e-01 3.040000000000002e+00
1.150000000000000e+00 3.000000000000000e-01 3.050000000000000e+00
9.999999999999997e-01 3.000000000000000e-01 2.971428571428627e+00
1.010909090909074e+00 3.000000000000000e-01 2.977142857142902e+00
1.021818181818148e+00 3.000000000000000e-01 2.982857142857177e+00
1.032727272727223e+00 3.000000000000000e-01 2.988571428571452e+00
1.043636363636297e+00 3.000000000000000e-01 2.994285714285726e+00
1.054545454545372e+00 3.000000000000000e-01 3.000000000000000e+00
1.150000000000000e+00 3.000000000000000e-01 3.050000000000000e+00
1.220000000000010e+00 3.000000000000000e-01 3.086666666666638e+00
1.290000000000014e+00 2.999999999999999e-01 3.123333333333286e+00
1.360000000000014e+00 3.000000000000000e-01 3.159999999999946e+00
1.430000000000009e+00 3.000000000000000e-01 3.196666666666613e+00
1.500000000000000e+00 3.000000000000000e-01 3.233333333333286e+00
1.500000000000000e+00 2.999999999999999e-01 3.233333333333286e+00
1.599999999999998e+00 3.000000000000000e-01 3.285714285714262e+00
1.699999999999996e+00 3.000000000000000e-01 3.338095238095244e+00
1.799999999999992e+00 2.999999999999999e-01 3.390476190476222e+00
1.899999999999993e+00 2.999999999999999e-01 3.442857142857195e+00
2.000000000000000e+00 3.000000000000000e-01 3.495238095238156e+00
9.973931072026406e-01 7.070273512785311e-02 4.999999999999998e+00
9.866136483990293e-01 1.604856085406813e-01 5.090532285429302e+00
9.677380497720585e-01 2.489458430506830e-01 5.181074271697498e+00
9.410473093875847e-01 3.354050493162016e-01 5.271622162414896e+00
9.068224253114640e-01 4.191848379955809e-01 5.362172161191801e+00
8.653443956095526e-01 4.996068197471643e-01 5.452720471638520e+00
8.653443956095527e-01 4.996068197471640e-01 5.452720471638521e+00
8.606057705830019e-01 5.077844949057555e-01 5.462176514244125e+00
8.557914246224535e-01 5.159173770349564e-01 5.471632492707142e+00
8.509016777832742e-01 5.240046934527600e-01 5.481088402703508e+00
8.459368501208306e-01 5.320456714771594e-01 5.490544239909150e+00
8.408972616904894e-01 5.400395384261474e-01 5.500000000000001e+00
8.408972616904897e-01 5.400395384261472e-01 5.500000000000000e+00
8.170876849891516e-01 5.757158235680646e-01 5.542925342284897e+00
7.917739045678240e-01 6.103329816750589e-01 5.585848601642335e+00
7.649858644468166e-01 6.438187214871799e-01 5.628769373517327e+00
7.367535086464386e-01 6.761007517444770e-01 5.671687253354878e+00
7.071067811870000e-01 7.071067811870000e-01 5.714601836600000e+00
7.071067811870000e-01 7.071067811870000e-01 5.714601836600000e+00
6.690967767716189e-01 7.430949925337623e-01 5.766970027442925e+00
6.292104186336188e-01 7.769672706543247e-01 5.819342994473974e+00
5.875790665592656e-01 8.086692045436578e-01 5.871720002579959e+00
5.443340803348261e-01 8.381463831967316e-01 5.924100316647686e+00
4.996068197465661e-01 8.653443956085167e-01 5.976483201563967e+00
4.996068197465660e-01 8.653443956085167e-01 5.976483201563966e+00
4.955229120705003e-01 8.676730276522652e-01 5.981186533782058e+00
4.914282091247533e-01 8.699828082656251e-01 5.985889880266784e+00
4.873228059880307e-01 8.722736980657076e-01 5.990593240486068e+00
4.832067977390384e-01 8.745456576696229e-01 5.995296613907834e+00
4.790802794564817e-01 8.767986476944817e-01 6.000000000000001e+00
4.790802794564817e-01 8.767986476944815e-01 6.000000000000001e+00
3.890256016956321e-01 9.201415524538572e-01 6.100009484049631e+00
2.951762298468835e-01 9.545117333406208e-01 6.200019341012337e+00
1.984461689329117e-01 9.795305970782483e-01 6.300024455950227e+00
9.974942397639198e-02 9.948195503902156e-01 6.400019713925410e+00
0.000000000000000e+00 1.000000000000000e+00 6.500000000000000e+00
1.000000000000000e-01 3.000000000000000e-01 7.500000000000000e+00
1.800000000000128e-01 3.000000000000000e-01 7.541904761904729e+00
2.600000000000176e-01 2.999999999999999e-01 7.583809523809474e+00
3.400000000000162e-01 3.000000000000000e-01 7.625714285714233e+00
4.200000000000100e-01 3.000000000000000e-01 7.667619047619000e+00
4.999999999999999e-01 3.000000000000000e-01 7.709523809523774e+00
5.000000000000000e-01 3.000000000000000e-01 7.709523809523774e+00
5.999999999999959e-01 3.000000000000000e-01 7.761904761904751e+00
6.999999999999911e-01 2.999999999999999e-01 7.814285714285733e+00
7.999999999999886e-01 3.000000000000000e-01 7.866666666666709e+00
8.999999999999907e-01 2.999999999999999e-01 7.919047619047674e+00
1.000000000000000e+00 3.000000000000000e-01 7.971428571428629e+00
1.054545454545370e+00 3.000000000000000e-01 7.999999999999999e+00
1.073636363636294e+00 2.999999999999999e-01 8.010000000000000e+00
1.092727272727220e+00 3.000000000000000e-01 8.020000000000001e+00
1.111818181818146e+00 3.000000000000000e-01 8.030000000000003e+00
1.130909090909073e+00 3.000000000000000e-01 8.040000000000003e+00
1.150000000000000e+00 3.000000000000000e-01 8.050000000000001e+00
9.999999999999996e-01 3.000000000000000e-01 7.971428571428627e+00
1.010909090909073e+00 3.000000000000000e-01 7.977142857142903e+00
1.021818181818147e+00 3.000000000000000e-01 7.982857142857179e+00
1.032727272727221e+00 3.000000000000000e-01 7.988571428571451e+00
1.043636363636295e+00 3.000000000000000e-01 7.994285714285724e+00
1.054545454545370e+00 3.000000000000000e-01 7.999999999999999e+00
1.150000000000000e+00 3.000000000000000e-01 8.050000000000001e+00
1.220000000000010e+00 3.000000000000000e-01 8.086666666666639e+00
1.290000000000014e+00 3.000000000000000e-01 8.123333333333287e+00
1.360000000000013e+00 2.999999999999999e-01 8.159999999999945e+00
1.430000000000008e+00 3.000000000000000e-01 8.196666666666616e+00
1.500000000000000e+00 3.000000000000000e-01 8.233333333333286e+00
1.500000000000000e+00 3.000000000000000e-01 8.233333333333286e+00
1.599999999999998e+00 2.999999999999999e-01 8.285714285714262e+00
1.699999999999995e+00 3.000000000000000e-01 8.338095238095244e+00
1.799999999999992e+00 3.000000000000000e-01 8.390476190476223e+00
1.899999999999993e+00 3.000000000000000e-01 8.442857142857196e+00
2.000000000000000e+00 3.000000000000000e-01 8.495238095238156e+00
[...]
  <PointData>
        <DataArray type="Float64" Name="displacement" NumberOfComponents="3" format="ascii">
2.707615691049933e-01 2.561153719977825e-01 2.827427060558681e-02
2.077173219043138e-01 2.354835335542276e-01 1.623583161781346e-02
1.553339834779300e-01 2.130654600523416e-01 7.887019339291146e-03
1.124007615646676e-01 1.894765019706122e-01 2.472351405619633e-03
7.770686390335035e-02 1.653320097875275e-01 -7.636545476013001e-04
5.004149823280368e-02 1.412473339815752e-01 -2.576480884771803e-03
5.004149823280390e-02 1.412473339815752e-01 -2.576480884771859e-03
4.750865621314115e-02 1.387604257420364e-01 -2.714288670377651e-03
4.503788566980993e-02 1.362815820194045e-01 -2.845674777151586e-03
4.262780751658812e-02 1.338115036947426e-01 -2.971499695660684e-03
4.027704266725274e-02 1.313508916491126e-01 -3.092623916472359e-03
3.798421203558267e-02 1.289004467635778e-01 -3.209907930154188e-03
3.798421203558278e-02 1.289004467635778e-01 -3.209907930154188e-03
2.826610376445171e-02 1.179231891478422e-01 -3.717642303341706e-03
1.958451375368486e-02 1.072354845046454e-01 -4.244474264241571e-03
1.181041624664436e-02 9.690290647831123e-02 -4.870910343015344e-03
4.814785486692008e-03 8.699102871316378e-02 -5.677457069824365e-03
-1.531404282810178e-03 7.756542485352680e-02 -6.744620974829640e-03
-1.531404282810178e-03 7.756542485352680e-02 -6.744620974829640e-03
-8.165527588974042e-03 6.656480414652255e-02 -7.999440826011894e-03
-1.334319114008875e-02 5.598356508758806e-02 -8.807217480513274e-03
-1.717838714351394e-02 4.591716571053972e-02 -9.214915970684689e-03
-1.978510780660903e-02 3.646106404919425e-02 -9.269501328877050e-03
-2.127734533673331e-02 2.771071813736803e-02 -9.017938587441710e-03
-2.127734533673320e-02 2.771071813736803e-02 -9.017938587441487e-03
-2.136068722171497e-02 2.696284390528614e-02 -8.981974572698781e-03
-2.143604619373346e-02 2.622149772165339e-02 -8.943955156619054e-03
-2.150350476077534e-02 2.548674867935341e-02 -8.903914332668905e-03
-2.156314543082793e-02 2.475866587126818e-02 -8.861886094314597e-03
-2.161505071187775e-02 2.403731839028056e-02 -8.817904435022728e-03
-2.161505071187780e-02 2.403731839028045e-02 -8.817904435022506e-03
-2.103927591842875e-02 1.042037153881603e-02 -7.482770025157404e-03
-1.779672252178055e-02 5.439666369814189e-04 -5.606628383846290e-03
-1.268055145066910e-02 -4.927696678148741e-03 -3.516263503965167e-03
-6.483923633830296e-03 -5.330418769500356e-03 -1.538459378390922e-03
0.000000000000000e+00 0.000000000000000e+00 0.000000000000000e+00
0.000000000000000e+00 0.000000000000000e+00 0.000000000000000e+00
-1.576416935872238e-03 1.943119782113922e-03 -4.396408781048855e-04
-3.839537671366133e-03 7.218188289184801e-03 -1.679229532802751e-04
-6.798095962408879e-03 1.571940296013563e-02 7.056078637481811e-04
-1.046082556492750e-02 2.734096123388963e-02 2.071405662257941e-03
-1.483646023484936e-02 4.197706054936984e-02 3.819924531525576e-03
-1.483646023484952e-02 4.197706054936978e-02 3.819924531525576e-03
-2.132183165458357e-02 6.435019944450948e-02 6.376888275495762e-03
-2.895182185281697e-02 9.106159658856106e-02 9.146731350138104e-03
-3.774348894659496e-02 1.219046063544213e-01 1.191549689857041e-02
-4.771389105296275e-02 1.566725831149866e-01 1.446922806391049e-02
-5.888008628896546e-02 1.951588812431535e-01 1.659396798927837e-02
-6.548085063965092e-02 2.176447320393378e-01 1.749558604811607e-02
-6.787688087541244e-02 2.257554067713838e-01 1.775953432692212e-02
-7.031757282941209e-02 2.339885231275667e-01 1.799430742536590e-02
-7.280304519077330e-02 2.423426432828279e-01 1.819841664738897e-02
-7.533341664861770e-02 2.508163294121092e-01 1.837037329693514e-02
-7.790880589206783e-02 2.594081436903524e-01 1.850868867794908e-02
-5.888008628896546e-02 1.951588812431535e-01 1.659396798927792e-02
-6.017128271041750e-02 1.995735408442505e-01 1.679070592524035e-02
-6.147693521013697e-02 2.040297240066440e-01 1.697951447329649e-02
-6.279706593419876e-02 2.085271624481074e-01 1.716011585925559e-02
-6.413169702867827e-02 2.130655878864139e-01 1.733223230892644e-02
-6.548085063965081e-02 2.176447320393373e-01 1.749558604811652e-02
-7.790880589206783e-02 2.594081436903524e-01 1.850868867794908e-02
-8.743068329055093e-02 2.915974718516395e-01 1.874212360948579e-02
-9.700308117762479e-02 3.247768806325538e-01 1.854501676399734e-02
-1.067134627829407e-01 3.590178963333580e-01 1.790223434333305e-02
-1.166492913361483e-01 3.943920452543144e-01 1.679864254934849e-02
-1.268980300668978e-01 4.309708536956853e-01 1.521910758389478e-02
-1.268980300668974e-01 4.309708536956852e-01 1.521910758389522e-02
-1.422552852560175e-01 4.854578112324185e-01 1.210701049107632e-02
-1.586846238698771e-01 5.427577611153226e-01 7.948593640593415e-03
-1.764410407471058e-01 6.030792348320425e-01 2.699735171956874e-03
-1.957795307263361e-01 6.666307638702237e-01 -3.683686775319828e-03
-2.169550886461988e-01 7.336208797175121e-01 -1.124579406172632e-02
3.457038900725583e-01 3.504379342117984e-01 3.770033594690059e-02
2.720241811148298e-01 3.189883797400999e-01 2.452579647644448e-02
2.097345864151436e-01 2.880689415766462e-01 1.438097717782849e-02
1.577444106997125e-01 2.577086067247334e-01 6.854730988832713e-03
1.149629586947484e-01 2.279363621876572e-01 1.535910847236366e-03
8.029953512646415e-02 1.987811949687135e-01 -1.986630309183113e-03
8.029953512646404e-02 1.987811949687135e-01 -1.986630309184001e-03
7.710354988294876e-02 1.957731729972166e-01 -2.267543426388130e-03
7.398296520837011e-02 1.927722302739050e-01 -2.533818043299441e-03
7.093653880636341e-02 1.897783998148279e-01 -2.785922454330958e-03
6.796302838056345e-02 1.867917146360343e-01 -3.024324953894819e-03
6.506119163460578e-02 1.838122077535739e-01 -3.249493836399608e-03
6.506119163460578e-02 1.838122077535739e-01 -3.249493836398720e-03
5.275488514758564e-02 1.703772710930824e-01 -4.118128010943245e-03
4.178387033574094e-02 1.570940412263234e-01 -4.767494904769798e-03
3.203191934771465e-02 1.439656070977448e-01 -5.241407616535021e-03
2.338280433215045e-02 1.309950576517945e-01 -5.583679244893780e-03
1.572029743769143e-02 1.181854818329207e-01 -5.838122888503605e-03
1.572029743769143e-02 1.181854818329207e-01 -5.838122888503605e-03
7.790875663335584e-03 1.031542992617707e-01 -5.954866300443840e-03
1.494083477536767e-03 8.912703997140980e-02 -5.788141269261082e-03
-3.319967154269743e-03 7.610781361760666e-02 -5.386693346350668e-03
-6.801164266649229e-03 6.410072985613025e-02 -4.799268083107044e-03
-9.099395894166085e-03 5.310989834275015e-02 -4.074611030924657e-03
-9.099395894166085e-03 5.310989834275015e-02 -4.074611030922881e-03
-9.252977411487395e-03 5.217293809754986e-02 -4.004494601693942e-03
-9.398339302302827e-03 5.124420643704897e-02 -3.933700126114381e-03
-9.535590056133914e-03 5.032370633583139e-02 -3.862262886396017e-03
-9.664838162501632e-03 4.941144076848192e-02 -3.790218164753334e-03
-9.786192110927183e-03 4.850741270958425e-02 -3.717601243399926e-03
-9.786192110927239e-03 4.850741270958447e-02 -3.717601243399038e-03
-1.069720127722107e-02 3.124034990414137e-02 -2.102880329204915e-03
-9.131161562951351e-03 1.772748213205855e-02 -5.845868541856092e-04
-6.130998054441950e-03 7.997404491739024e-03 4.981062880746734e-04
-2.739635838016855e-03 2.078712081585388e-03 8.060262039979449e-04
0.000000000000000e+00 0.000000000000000e+00 0.000000000000000e+00
0.000000000000000e+00 0.000000000000000e+00 0.000000000000000e+00
-2.734610378159530e-03 2.946785311009115e-03 -1.453711663783608e-04
-7.273531167856062e-03 1.175437992160266e-02 1.042533284683955e-03
-1.351796105506847e-02 2.599704238170830e-02 3.370946543879150e-03
-2.136909872577508e-02 4.524903124125340e-02 6.647101801892319e-03
-3.072814286595477e-02 6.908460505016528e-02 1.067823224941300e-02
-3.072814286595471e-02 6.908460505016534e-02 1.067823224941300e-02
-4.439692388704819e-02 1.046761481560116e-01 1.648516098300234e-02
-6.007446039708708e-02 1.459327954598335e-01 2.279404263621299e-02
-7.756778107962425e-02 1.920230206919574e-01 2.922837953461155e-02
-9.668391461821091e-02 2.421152975827102e-01 3.541167400376199e-02
-1.172298896963991e-01 2.953780998624185e-01 4.096742836922385e-02
-1.289704341470567e-01 3.254694993318684e-01 4.359869416796247e-02
-1.331607679465759e-01 3.361409226903506e-01 4.443775689390073e-02
-1.373910021564116e-01 3.468752776020992e-01 4.523012183919128e-02
-1.416597940963513e-01 3.576667783685540e-01 4.597316936072993e-02
-1.459658010861841e-01 3.685096392911552e-01 4.666427981542576e-02
-1.503076804456975e-01 3.793980746713424e-01 4.730083356017900e-02
-1.172298896963992e-01 2.953780998624181e-01 4.096742836922385e-02
-1.195495611478155e-01 3.013450259001680e-01 4.151953447317425e-02
-1.218837018478414e-01 3.073387084132411e-01 4.205920290140508e-02
-1.242320612672252e-01 3.133580678543842e-01 4.258594485753342e-02
-1.265943888767144e-01 3.194020246763443e-01 4.309927154517990e-02
-1.289704341470567e-01 3.254694993318684e-01 4.359869416796247e-02
-1.503076804456975e-01 3.793980746713424e-01 4.730083356017900e-02
-1.665957868220351e-01 4.202750409821152e-01 4.914514477847298e-02
-1.835036609247542e-01 4.628721250571615e-01 5.021829761134633e-02
-2.010496830414967e-01 5.071408390812128e-01 5.052304475533909e-02
-2.192522334599061e-01 5.530326952389990e-01 5.006213890699129e-02
-2.381296924676246e-01 6.004992057152516e-01 4.883833276285365e-02
-2.381296924676246e-01 6.004992057152514e-01 4.883833276285188e-02
-2.663046899020827e-01 6.709439221539448e-01 4.577209703988494e-02
-2.959481494400649e-01 7.443619002164550e-01 4.116256504014260e-02
-3.271136579260099e-01 8.206117760098690e-01 3.501776211797392e-02
-3.598548022043571e-01 8.995521856412743e-01 2.734571362773508e-02
-3.942251691195440e-01 9.810417652177568e-01 1.815444492377516e-02
3.486805433187193e-01 3.559236958972078e-01 3.732706488572113e-02
2.746388884408070e-01 3.240502340298887e-01 2.407137809606930e-02
2.120402853408886e-01 2.927386463161704e-01 1.390038106583091e-02
1.597810357644350e-01 2.620133203177207e-01 6.388815185529140e-03
1.167574414569195e-01 2.318986435962077e-01 1.111421845687133e-03
8.186580416381395e-02 2.024190037132992e-01 -2.357057563171949e-03
8.186580416381406e-02 2.024190037132992e-01 -2.357057563170173e-03
7.864626295618604e-02 1.993779455257070e-01 -2.632167027316612e-03
7.550211760209136e-02 1.963441070578453e-01 -2.892670168547440e-03
7.243211099483637e-02 1.933175160870226e-01 -3.139051354255074e-03
6.943498602772757e-02 1.902982003905476e-01 -3.371794951839036e-03
6.650948559407077e-02 1.872861877457288e-01 -3.591385328677532e-03
6.650948559407033e-02 1.872861877457284e-01 -3.591385328679308e-03
5.409472882469457e-02 1.737051093943641e-01 -4.436146198353086e-03
4.301256000953380e-02 1.602777108218527e-01 -5.065131691923241e-03
3.314536565951087e-02 1.470065908419611e-01 -5.523658678036725e-03
2.437553228554878e-02 1.338943482684553e-01 -5.857044025333380e-03
1.658544639857051e-02 1.209435819151018e-01 -6.110604602447722e-03
1.658544639857051e-02 1.209435819151018e-01 -6.110604602447722e-03
8.504425030292695e-03 1.057315562551985e-01 -6.227029473210521e-03
2.073130879228224e-03 9.150838737065348e-02 -6.051437489588807e-03
-2.859173171257057e-03 7.828156105873585e-02 -5.633958690211216e-03
-6.443224237797307e-03 6.605856311671554e-02 -5.024723113709939e-03
-8.829759437026852e-03 5.484687934186183e-02 -4.273860798717166e-03
-8.829759437026796e-03 5.484687934186194e-02 -4.273860798718943e-03
-8.990586428309688e-03 5.388996320241812e-02 -4.201223679510591e-03
-9.143083955124476e-03 5.294126549982014e-02 -4.127885247319441e-03
-9.287361121561144e-03 5.200079165231608e-02 -4.053881786450830e-03
-9.423527031709789e-03 5.106854707815400e-02 -3.979249581220756e-03
-9.551690789660228e-03 5.014453719558176e-02 -3.904024915931004e-03
-9.551690789660172e-03 5.014453719558221e-02 -3.904024915932780e-03
-1.058306320858804e-02 3.245642180230934e-02 -2.230899734401603e-03
-9.094747316260643e-03 1.854582400185967e-02 -6.551284580194050e-04
-6.135576135503362e-03 8.464830178488092e-03 4.744827191895951e-04
-2.754382689141355e-03 2.265526716449862e-03 8.091276032047290e-04
0.000000000000000e+00 0.000000000000000e+00 0.000000000000000e+00
0.000000000000000e+00 0.000000000000000e+00 0.000000000000000e+00
-2.791807202090740e-03 3.028281947290323e-03 -1.463590205883492e-04
-7.452493796069437e-03 1.208291199978329e-02 1.048657504243877e-03
-1.387465655125758e-02 2.671496077832014e-02 3.389594185605915e-03
-2.195089223697633e-02 4.647549890374242e-02 6.680995634612330e-03
-3.157379762254714e-02 7.091559699689115e-02 1.072740646236703e-02
-3.157379762254714e-02 7.091559699689115e-02 1.072740646236703e-02
-4.561381151069233e-02 1.073624349668850e-01 1.654938786692739e-02
-6.169290732200217e-02 1.495428180378482e-01 2.286392357422251e-02
-7.960131312155683e-02 1.965799310161110e-01 2.928926477782667e-02
-9.912925697443775e-02 2.475969587080039e-01 3.544366267131949e-02
-1.200669669457253e-01 3.017170859198573e-01 4.094536844827346e-02
-1.320067150978902e-01 3.322315015128294e-01 4.353467399660360e-02
-1.362636736359024e-01 3.430416977277215e-01 4.435675591488142e-02
-1.405587376995000e-01 3.539095020095825e-01 4.513089104256451e-02
-1.448904477110050e-01 3.648288135428536e-01 4.585442319955746e-02
-1.492573440927389e-01 3.757935315119761e-01 4.652469620577904e-02
-1.536579672670246e-01 3.867975551013914e-01 4.713905388113915e-02
-1.200669669457255e-01 3.017170859198575e-01 4.094536844827346e-02
-1.224274440952274e-01 3.077715331700530e-01 4.148983341683454e-02
-1.248019298262192e-01 3.138513366990416e-01 4.202149206972550e-02
-1.271901517976761e-01 3.199553581622293e-01 4.253984879316697e-02
-1.295918376685744e-01 3.260824592150222e-01 4.304440797338671e-02
-1.320067150978887e-01 3.322315015128260e-01 4.353467399660360e-02
-1.536579672670246e-01 3.867975551013914e-01 4.713905388113915e-02
-1.701808508938656e-01 4.281001769308779e-01 4.889569591190224e-02
-1.873679673514101e-01 4.711480601522853e-01 4.987367716304192e-02
-2.052340154965069e-01 5.158893021030725e-01 5.007574115507651e-02
-2.237936941860061e-01 5.622720001206982e-01 4.950463140852968e-02
-2.430617022767576e-01 6.102442515426219e-01 4.816309144390729e-02
-2.430617022767574e-01 6.102442515426219e-01 4.816309144390729e-02
-2.718453033871722e-01 6.814305304399265e-01 4.491558424721376e-02
-3.021473261813206e-01 7.556035523596483e-01 4.010936810657384e-02
-3.340106244692611e-01 8.326119975859231e-01 3.375244162407753e-02
-3.674780520610494e-01 9.123045464028889e-01 2.585280340181129e-02
-4.025924627667434e-01 9.945298790946825e-01 1.641845204186509e-02
5.752649727852654e-02 1.159627171160628e-01 4.474766611840764e-03
4.885059780681489e-02 1.106103950323372e-01 3.475629303132166e-03
4.113699979475027e-02 1.052540944629155e-01 2.572207010311800e-03
3.424400186232923e-02 9.990674494343532e-02 1.716406215034993e-03
2.802990262954763e-02 9.458127600953514e-02 8.601333989606275e-04
2.235300071640167e-02 8.929061719685250e-02 -4.470495625952253e-05
7.007915404581122e-03 7.363233139290171e-02 -3.567280723089539e-03
6.279282813131837e-03 7.288166804334972e-02 -3.786239774310474e-03
5.549458715191635e-03 7.213295909398054e-02 -4.010686932764074e-03
4.817980158892454e-03 7.138624678681549e-02 -4.240779324552690e-03
4.084384192365675e-03 7.064157336387578e-02 -4.476674075759135e-03
3.348207863742680e-03 6.989898106718218e-02 -4.718528312482206e-03
2.235300071640167e-02 8.929061719685250e-02 -4.470495625774618e-05
1.912000619375664e-02 8.611257442969067e-02 -6.358991399686431e-04
1.600036599148136e-02 8.295486251393513e-02 -1.273108311696802e-03
1.296271451934661e-02 7.982034340136546e-02 -1.966977968248074e-03
9.975686187122856e-03 7.671187904376087e-02 -2.728153606444295e-03
7.007915404581122e-03 7.363233139290148e-02 -3.567280723089539e-03
1.936306982105666e-01 1.601589222699961e-01 2.422070340514537e-02
1.554120998589158e-01 1.518218846608541e-01 1.791960550331950e-02
1.234250107820932e-01 1.431668965340588e-01 1.304311792207535e-02
9.693680078789113e-02 1.342608066964411e-01 9.342585612410303e-03
7.521483968410447e-02 1.251704639548321e-01 6.569353525332389e-03
5.752649727852643e-02 1.159627171160628e-01 4.474766611837211e-03
-1.340221939805047e-02 -1.223193154062052e-03 -4.604126116610985e-03
-1.136354609376294e-02 -4.434612531473814e-03 -3.499929637047927e-03
-8.939067191175182e-03 -6.127996229962629e-03 -2.431290052950175e-03
-6.193703000926171e-03 -6.093350924339380e-03 -1.454336096983866e-03
-3.192373833654817e-03 -4.120683289414950e-03 -6.251965017796124e-04
0.000000000000000e+00 0.000000000000000e+00 0.000000000000000e+00
3.348207863742680e-03 6.989898106718218e-02 -4.718528312482206e-03
-3.543194011313977e-04 6.579734572192064e-02 -5.904383613209774e-03
-3.629999558631081e-03 6.141174629249724e-02 -6.867553210383903e-03
-6.495041653150624e-03 5.679461307533396e-02 -7.622051102256222e-03
-8.965654729084949e-03 5.199837636685256e-02 -8.181891287060594e-03
-1.105804783082887e-02 4.707546646347471e-02 -8.561087763053976e-03
-1.105804783082909e-02 4.707546646347438e-02 -8.561087763055752e-03
-1.265315931021993e-02 4.251055541209958e-02 -8.761545355723044e-03
-1.395833416243852e-02 3.792365615749793e-02 -8.833549037129629e-03
-1.498594168014022e-02 3.335477881159421e-02 -8.787793037068781e-03
-1.574835115597989e-02 2.884393348631420e-02 -8.634971585342655e-03
-1.625793188261260e-02 2.443113029358301e-02 -8.385778911744524e-03
-1.625793188261265e-02 2.443113029358301e-02 -8.385778911744524e-03
-1.657422070002457e-02 1.818614682473341e-02 -7.864957949781370e-03
-1.640710709673182e-02 1.236985066352136e-02 -7.192069849761396e-03
-1.579627783627680e-02 7.110613891969431e-03 -6.401426951210709e-03
-1.478141968220220e-02 2.536808592100481e-03 -5.527341593655422e-03
-1.340221939805047e-02 -1.223193154062052e-03 -4.604126116607432e-03
-1.344137420665437e-02 4.799216076758955e-02 5.713073607367392e-03
-1.467327291891940e-02 5.368283999008427e-02 6.336437112153703e-03
-1.595566561678430e-02 5.966745319160582e-02 6.967138136836581e-03
-1.728924808293342e-02 6.594220028614622e-02 7.601183815364010e-03
-1.867471610005067e-02 7.250328118769744e-02 8.234581281691078e-03
-2.011276545082064e-02 7.934689581025117e-02 8.863337669783533e-03
-6.714360782653583e-03 1.881400754435242e-02 2.165938038032778e-03
-7.905732907128538e-03 2.362895148491662e-02 2.788290512313552e-03
-9.172666881557823e-03 2.896217683048491e-02 3.462521060267676e-03
-1.051661613614963e-02 3.480574552809473e-02 4.180288928019138e-03
-1.193903410111252e-02 4.115171952478375e-02 4.933253361677714e-03
-1.344137420665459e-02 4.799216076758978e-02 5.713073607367392e-03
0.000000000000000e+00 0.000000000000000e+00 0.000000000000000e+00
-1.033845320778992e-03 1.189196404968063e-03 -1.573010764843730e-05
-2.217171696155235e-03 3.692680112104441e-03 2.218777060143395e-04
-3.555011489407456e-03 7.482966371191946e-03 6.839443773145604e-04
-5.052397063813996e-03 1.253257043201367e-02 1.341590842546481e-03
-6.714360782653639e-03 1.881400754435253e-02 2.165938038029225e-03
-3.172221921401275e-02 1.349029813808186e-01 1.280239799772787e-02
-3.278390668388043e-02 1.399602435706351e-01 1.306108557563590e-02
-3.386443619053803e-02 1.450979472142589e-01 1.330726183620357e-02
-3.496393476474324e-02 1.503153985206339e-01 1.354019779203952e-02
-3.608252943725421e-02 1.556119036987040e-01 1.375916445576664e-02
-3.722034723882706e-02 1.609867689574127e-01 1.396343284000068e-02
-2.011276545082075e-02 7.934689581025128e-02 8.863337669783533e-03
-2.221775247794944e-02 8.940522069265666e-02 9.729010638114488e-03
-2.442927667108485e-02 1.000004489967497e-01 1.056674096463439e-02
-2.674925272697481e-02 1.111221234166969e-01 1.136554083978325e-02
-2.917959534236814e-02 1.227597866466642e-01 1.211442245399752e-02
-3.172221921401319e-02 1.349029813808184e-01 1.280239799772431e-02
-4.627606599184442e-02 2.077079801521079e-01 1.502361041772460e-02
-4.920521031871727e-02 2.243292258805059e-01 1.509027888658210e-02