<?xml version="1.0" ?> 
<!-- 
# vtk DataFile Version 3.0
-->
<VTKFile type="UnstructuredGrid" version="0.1" compressor="vtkZLibDataCompressor" byte_order="LittleEndian">
  <UnstructuredGrid>
    <FieldData>
      <DataArray type="Float64" Name="TIME" NumberOfTuples="1" format="ascii">
1.000000000000000e+00 
      </DataArray>
    </FieldData>

    <Piece NumberOfPoints="60" NumberOfCells="0" >
      <Points>
        <DataArray type="Float64" NumberOfComponents="3" format="ascii">
1.000000000000000e+00 0.000000000000000e+00 -7.079632679490000e-02
7.071067811870000e-01 7.071067811870000e-01 7.146018366030000e-01
9.229551825145283e-01 3.823005540599319e-01 3.219027549043411e-01
7.071067811870000e-01 7.071067811870000e-01 7.146018366030000e-01
0.000000000000000e+00 1.000000000000000e+00 1.500000000000000e+00
3.823005540591954e-01 9.229551825132056e-01 1.107300918301373e+00
1.000000000000000e-01 3.000000000000000e-01 2.500000000000000e+00
1.150000000000000e+00 3.000000000000000e-01 3.050000000000000e+00
6.250000000000000e-01 3.000000000000000e-01 2.775000000000000e+00
1.150000000000000e+00 3.000000000000000e-01 3.050000000000000e+00
2.200000000000000e+00 3.000000000000000e-01 3.600000000000000e+00
1.675000000000000e+00 3.000000000000000e-01 3.325000000000000e+00
1.000000000000000e+00 0.000000000000000e+00 4.929203673210000e+00
7.071067811870000e-01 7.071067811870000e-01 5.714601836600000e+00
9.229551825141720e-01 3.823005540597842e-01 5.321902754905291e+00
7.071067811870000e-01 7.071067811870000e-01 5.714601836600000e+00
0.000000000000000e+00 1.000000000000000e+00 6.500000000000000e+00
3.823005540592515e-01 9.229551825133410e-01 6.107300918299872e+00
1.000000000000000e-01 3.000000000000000e-01 7.500000000000000e+00
1.150000000000000e+00 3.000000000000000e-01 8.050000000000001e+00
6.250000000000000e-01 3.000000000000000e-01 7.775000000000000e+00
1.150000000000000e+00 3.000000000000000e-01 8.050000000000001e+00
2.200000000000000e+00 3.000000000000000e-01 8.600000000000000e+00
1.675000000000000e+00 3.000000000000000e-01 8.324999999999999e+00
1.000000000000000e+00 0.000000000000000e+00 9.929203673210001e+00
7.071067811870000e-01 7.071067811870000e-01 1.071460183660000e+01
9.229551825141720e-01 3.823005540597842e-01 1.032190275490529e+01
7.071067811870000e-01 7.071067811870000e-01 1.071460183660000e+01
0.000000000000000e+00 1.000000000000000e+00 1.150000000000000e+01
3.823005540592515e-01 9.229551825133410e-01 1.110730091829987e+01
1.000000000000000e-01 3.000000000000000e-01 1.250000000000000e+01
1.150000000000000e+00 3.000000000000000e-01 1.305000000000000e+01
6.250000000000000e-01 3.000000000000000e-01 1.277500000000000e+01
1.150000000000000e+00 3.000000000000000e-01 1.305000000000000e+01
2.200000000000000e+00 3.000000000000000e-01 1.360000000000000e+01
1.675000000000000e+00 3.000000000000000e-01 1.332500000000000e+01
1.000000000000000e+00 0.000000000000000e+00 1.492920367320000e+01
7.071067811870000e-01 7.071067811870000e-01 1.571460183660000e+01
9.229551825146231e-01 3.823005540599710e-01 1.532190275490029e+01
7.071067811870000e-01 7.071067811870000e-01 1.571460183660000e+01
0.000000000000000e+00 1.000000000000000e+00 1.650000000000000e+01
3.823005540592515e-01 9.229551825133410e-01 1.610730091829987e+01
1.000000000000000e-01 3.000000000000000e-01 1.750000000000000e+01
1.150000000000000e+00 3.000000000000000e-01 1.805000000000000e+01
6.250000000000000e-01 3.000000000000000e-01 1.777500000000000e+01
1.150000000000000e+00 3.000000000000000e-01 1.805000000000000e+01
2.200000000000000e+00 3.000000000000000e-01 1.860000000000000e+01
1.675000000000000e+00 3.000000000000000e-01 1.832500000000000e+01
1.000000000000000e+00 0.000000000000000e+00 1.992920367320000e+01
7.071067811870000e-01 7.071067811870000e-01 2.071460183660000e+01
9.229551825146229e-01 3.823005540599710e-01 2.032190275490029e+01
7.071067811870000e-01 7.071067811870000e-01 2.071460183660000e+01
0.000000000000000e+00 1.000000000000000e+00 2.150000000000000e+01
3.823005540592515e-01 9.229551825133410e-01 2.110730091829987e+01
1.000000000000000e-01 3.000000000000000e-01 2.250000000000000e+01
1.150000000000000e+00 3.000000000000000e-01 2.305000000000000e+01
6.250000000000000e-01 3.000000000000000e-01 2.277500000000000e+01
1.150000000000000e+00 3.000000000000000e-01 2.305000000000000e+01
2.200000000000000e+00 3.000000000000000e-01 2.360000000000000e+01
1.675000000000000e+00 3.000000000000000e-01 2.332500000000000e+01
        </DataArray>
      </Points>

      <Cells>
        <DataArray type="Int32" Name="connectivity" format="ascii">

        </DataArray>
        <DataArray type="Int32" Name="offsets" format="ascii">

        </DataArray>
        <DataArray type="UInt8" Name="types" format="ascii">

        </DataArray>
      </Cells>

  <PointData>
        <DataArray type="Float64" Name="displacement" NumberOfComponents="3" format="ascii">
-3.720200327369894e-02 -3.228133965669670e-02 2.343838970040822e-02
-1.516997567414669e-02 -5.083845144167820e-03 -6.317662401051471e-03
-1.590464559312688e-02 -1.004733785071221e-02 -6.218269313799096e-04
-1.516997567414669e-02 -5.083845144167820e-03 -6.317662401051471e-03
0.000000000000000e+00 0.000000000000000e+00 0.000000000000000e+00
-1.337261149870111e-02 -9.867064207698117e-03 -8.612152135378359e-03
0.000000000000000e+00 0.000000000000000e+00 0.000000000000000e+00
0.000000000000000e+00 -1.665334536937735e-16 -8.881784197001252e-16
0.000000000000000e+00 -1.665334536937735e-16 -4.440892098500626e-16
0.000000000000000e+00 -1.665334536937735e-16 -8.881784197001252e-16
0.000000000000000e+00 3.885780586188048e-16 -8.881784197001252e-16
2.220446049250313e-16 5.551115123125783e-17 -1.332267629550188e-15
6.571822678889117e-04 7.271671190417414e-04 1.284235246759025e-04
2.718378198610649e-04 4.417570820367533e-04 7.037177424784602e-05
8.059101369121136e-04 6.631088410663510e-04 -1.473226460202426e-05
2.718378198610649e-04 4.417570820367533e-04 7.037177424784602e-05
0.000000000000000e+00 0.000000000000000e+00 0.000000000000000e+00
1.677615747897598e-04 3.676567951739207e-04 2.147228613225138e-05
0.000000000000000e+00 0.000000000000000e+00 0.000000000000000e+00
-2.220446049250313e-16 6.661338147750939e-16 0.000000000000000e+00
-3.330669073875470e-16 3.885780586188048e-16 8.881784197001252e-16
-2.220446049250313e-16 6.661338147750939e-16 0.000000000000000e+00
-1.332267629550188e-15 -1.498801083243961e-15 1.776356839400250e-15
4.440892098500626e-16 -4.996003610813204e-16 -1.776356839400250e-15
6.702316166653510e-04 7.211488195716319e-04 1.190697604425139e-04
2.794193314256121e-04 4.375377847503081e-04 7.611783338568046e-05
7.906499391651112e-04 6.448729220903116e-04 2.377441440160055e-06
2.794193314256121e-04 4.375377847503081e-04 7.611783338568046e-05
0.000000000000000e+00 0.000000000000000e+00 0.000000000000000e+00
1.630270793018807e-04 3.544151927957762e-04 1.905481701847123e-05
0.000000000000000e+00 0.000000000000000e+00 0.000000000000000e+00
1.332267629550188e-15 -2.442490654175344e-15 -3.552713678800501e-15
4.440892098500626e-16 -1.665334536937735e-16 -1.776356839400250e-15
1.332267629550188e-15 -2.442490654175344e-15 -3.552713678800501e-15
-1.776356839400250e-15 -7.216449660063518e-15 3.552713678800501e-15
4.440892098500626e-16 -5.717648576819556e-15 -1.776356839400250e-15
-1.389794469956762e-02 -7.109106508212483e-03 1.120466719575397e-02
-4.343528931217033e-03 8.532618562626548e-03 -2.636001915526265e-03
-8.632349823113561e-03 2.824674715993236e-03 1.656787166826490e-03
-4.343528931217033e-03 8.532618562626548e-03 -2.636001915526265e-03
0.000000000000000e+00 0.000000000000000e+00 0.000000000000000e+00
-7.870539428361800e-03 -5.041401463603545e-03 -5.544806108296996e-03
0.000000000000000e+00 0.000000000000000e+00 0.000000000000000e+00
6.661338147750939e-16 5.551115123125783e-17 -3.552713678800501e-15
0.000000000000000e+00 5.551115123125783e-17 0.000000000000000e+00
6.661338147750939e-16 5.551115123125783e-17 -3.552713678800501e-15
-4.440892098500626e-16 1.110223024625157e-15 0.000000000000000e+00
-4.440892098500626e-16 1.665334536937735e-16 0.000000000000000e+00
7.432405645080298e-04 8.366366550949287e-04 1.464606962073844e-04
3.205567768014284e-04 5.146409547353015e-04 8.576962489215134e-05
9.115526633306503e-04 7.616883977845657e-04 -5.625000802922386e-07
3.205567768014284e-04 5.146409547353015e-04 8.576962489215134e-05
0.000000000000000e+00 0.000000000000000e+00 0.000000000000000e+00
1.827383192465892e-04 4.140032526614990e-04 1.824327065236275e-05
0.000000000000000e+00 0.000000000000000e+00 0.000000000000000e+00
4.440892098500626e-16 -4.163336342344337e-15 3.552713678800501e-15
1.443289932012704e-15 -1.720845688168993e-15 0.000000000000000e+00
4.440892098500626e-16 -4.163336342344337e-15 3.552713678800501e-15
5.329070518200751e-15 -1.143529715363911e-14 -7.105427357601002e-15
8.881784197001252e-16 -6.106226635438361e-15 3.552713678800501e-15
        </DataArray>
        <DataArray type="Float64" Name="lambda" NumberOfComponents="3" format="ascii">
1.569602017657666e-02 2.771803413189531e-02 -2.105450759294284e-03
1.301702376159063e-02 3.017502343799253e-02 1.676957540948213e-03
-3.964427683182153e-03 -1.086033375985165e-02 -1.377294978027824e-03
1.301702376159063e-02 3.017502343799253e-02 1.676957540948213e-03
7.214426450797076e-02 1.495270027614972e-01 2.408502571549602e-02
-3.679705379400763e-03 -1.202299323900056e-02 -2.602521559642293e-04
-2.820377627051554e-15 2.107404771079625e-15 -2.116012110827733e-14
3.958789515433812e-15 -3.852485633774578e-15 -1.629003978790499e-14
3.647025250182507e-15 -3.210334065452800e-15 -7.289762908958733e-15
3.958789515433812e-15 -3.852485633774578e-15 -1.629003978790499e-14
-5.627731658114042e-14 1.547626205981362e-14 1.125546331622808e-14
1.940597123488448e-15 -3.153470325668727e-15 -1.746537411139603e-14
7.008815492204366e-04 4.614419761800408e-04 -1.164555389011743e-04
4.503596138853998e-04 5.739179838158195e-04 9.850323593351276e-05
-2.335955102438281e-04 -1.750341354447055e-04 2.455681476456703e-05
4.503596138853998e-04 5.739179838158195e-04 9.850323593351276e-05
3.224501662020455e-04 6.722401533822345e-04 3.168295485049422e-04
-2.030245535751414e-04 -3.613397860878954e-04 -9.570778044425138e-05
4.407643965656733e-16 -2.963583180021336e-15 -5.296032905038129e-15
-5.692614065906875e-15 -3.042433574309233e-15 9.466813895358741e-15
-2.692607403144381e-16 -3.515396194009678e-15 -6.480094147796643e-14
-5.692614065906875e-15 -3.042433574309233e-15 9.466813895358741e-15
-5.627731658114060e-14 -1.512452883118154e-14 1.125546331622812e-13
-1.261388130267492e-14 0.000000000000000e+00 -1.086734389153531e-13
6.466330673898014e-04 4.106545401558012e-04 -1.118520034260570e-04
4.201866518620751e-04 5.102336776572835e-04 7.808463028046797e-05
-2.165130320662869e-04 -1.543354799922510e-04 2.665493532804136e-05
4.201866518620751e-04 5.102336776572835e-04 7.808463028046797e-05
3.142015605099568e-04 5.867034644572700e-04 2.994116170135994e-04
-1.898685453442548e-04 -3.250632068670167e-04 -8.080991833662494e-05
4.253290675030609e-15 5.453816268789248e-15 3.863634368027805e-14
5.959609861702256e-15 -2.103003922436969e-15 -1.542114976603309e-13
1.029021937507411e-16 8.112122940683422e-16 -8.199246798059048e-14
5.959609861702256e-15 -2.103003922436969e-15 -1.542114976603309e-13
-2.251092663245608e-14 2.813865829057010e-15 -1.350655597947365e-13
1.940597123488449e-15 -9.702985617442244e-16 -7.762388493953795e-14
-4.058482042449734e-04 1.283914153996145e-02 -1.723649348374967e-03
5.142045094617131e-04 2.059389048923362e-02 1.853448842030998e-03
9.019509782313739e-04 -5.130612301308643e-03 -6.475684883933248e-04
5.142045094617131e-04 2.059389048923362e-02 1.853448842030998e-03
5.585393883371687e-02 1.629530967897262e-01 1.492348097491078e-02
2.803009465435515e-03 -8.509564674849670e-03 -1.825611254318650e-03
-4.507116086282452e-15 8.609483543811990e-16 6.695502740048209e-14
1.674481850643722e-14 -3.199854995962035e-15 -7.680579059044284e-14
1.735617001262491e-15 -3.042474861896897e-15 1.031765996007426e-14
1.674481850643722e-14 -3.199854995962035e-15 -7.680579059044284e-14
2.415418030997182e-14 1.378217193909712e-14 2.186022015948667e-13
8.591501034506714e-15 7.510575170923000e-16 -7.447799507138279e-14
7.542210594863899e-04 5.103311442563623e-04 -1.358335630488583e-04
4.804522329224359e-04 6.363043615468156e-04 9.684722900458213e-05
-2.503352743874619e-04 -1.943834180728589e-04 2.856568135791448e-05
4.804522329224359e-04 6.363043615468156e-04 9.684722900458213e-05
3.449658413225235e-04 7.953299552440704e-04 3.194332645991436e-04
-2.151345972753630e-04 -3.981613991528806e-04 -9.626326003361124e-05
4.472815355032231e-15 6.098670016293947e-15 1.655216087211927e-13
-4.881737945343312e-15 3.263281948608967e-16 5.744035478430287e-14
-3.045904935021929e-15 1.248546617508989e-15 -8.517557584061323e-14
-4.881737945343312e-15 3.263281948608967e-16 5.744035478430287e-14
1.231066300212334e-15 4.858315220480816e-15 -3.643956248628507e-13
-1.368083069771768e-14 -2.852147139502024e-16 1.252291581251121e-14
        </DataArray>
        <DataArray type="Int32" Name="uid_0_pair_beam_id" format="ascii">
267
267
267
268
268
268
269
269
269
270
270
270
271
271
271
272
272
272
273
273
273
274
274
274
275
275
275
276
276
276
277
277
277
278
278
278
279
279
279
280
280
280
281
281
281
282
282
282
283
283
283
284
284
284
285
285
285
286
286
286
        </DataArray>
        <DataArray type="Int32" Name="uid_1_pair_solid_id" format="ascii">
0
0
0
4
4
4
9
9
9
11
11
11
17
17
17
21
21
21
26
26
26
28
28
28
34
34
34
38
38
38
43
43
43
45
45
45
58
58
58
51
51
51
99
99
99
99
99
99
166
166
166
159
159
159
207
207
207
207
207
207
        </DataArray>
      </PointData>

    </Piece>
  </UnstructuredGrid>
</VTKFile>
