<?xml version="1.0" ?> 
<!-- 
# vtk DataFile Version 3.0
-->
<VTKFile type="UnstructuredGrid" version="0.1" compressor="vtkZLibDataCompressor" byte_order="LittleEndian">
  <UnstructuredGrid>
    <FieldData>
      <DataArray type="Float64" Name="TIME" NumberOfTuples="1" format="ascii">
3.000000000000000e+00 
      </DataArray>
    </FieldData>

    <Piece NumberOfPoints="18" NumberOfCells="0" >
      <Points>
        <DataArray type="Float64" NumberOfComponents="3" format="ascii">
1.000000000000000e-01 3.000000000000000e-01 1.750000000000000e+01
1.150000000000000e+00 3.000000000000000e-01 1.805000000000000e+01
6.250000000000000e-01 3.000000000000000e-01 1.777500000000000e+01
1.150000000000000e+00 3.000000000000000e-01 1.805000000000000e+01
2.200000000000000e+00 3.000000000000000e-01 1.860000000000000e+01
1.675000000000000e+00 3.000000000000000e-01 1.832500000000000e+01
1.000000000000000e+00 0.000000000000000e+00 1.992920367320000e+01
7.071067811870000e-01 7.071067811870000e-01 2.071460183660000e+01
9.229551825146229e-01 3.823005540599710e-01 2.032190275490029e+01
7.071067811870000e-01 7.071067811870000e-01 2.071460183660000e+01
0.000000000000000e+00 1.000000000000000e+00 2.150000000000000e+01
3.823005540592515e-01 9.229551825133410e-01 2.110730091829987e+01
1.000000000000000e-01 3.000000000000000e-01 2.250000000000000e+01
1.150000000000000e+00 3.000000000000000e-01 2.305000000000000e+01
6.250000000000000e-01 3.000000000000000e-01 2.277500000000000e+01
1.150000000000000e+00 3.000000000000000e-01 2.305000000000000e+01
2.200000000000000e+00 3.000000000000000e-01 2.360000000000000e+01
1.675000000000000e+00 3.000000000000000e-01 2.332500000000000e+01
        </DataArray>
      </Points>

      <Cells>
        <DataArray type="Int32" Name="connectivity" format="ascii">

        </DataArray>
        <DataArray type="Int32" Name="offsets" format="ascii">

        </DataArray>
        <DataArray type="UInt8" Name="types" format="ascii">

        </DataArray>
      </Cells>

  <PointData>
        <DataArray type="Float64" Name="displacement" NumberOfComponents="3" format="ascii">
0.000000000000000e+00 0.000000000000000e+00 0.000000000000000e+00
-3.722034723882661e-02 1.609867689574122e-01 1.396343284000068e-02
-1.271564295899974e-02 4.467240552457385e-02 5.338768720356768e-03
-3.722034723882661e-02 1.609867689574122e-01 1.396343284000068e-02
-1.204773426034742e-01 5.746960596276180e-01 -7.713575744254797e-03
-6.667695230939552e-02 3.266878033748438e-01 1.231593071047143e-02
4.091240090892270e-01 3.748749118879643e-01 4.918643492159802e-02
1.680703679435314e-02 1.208543314139018e-01 -5.684291251085938e-03
1.331566762159380e-01 2.433454717844161e-01 3.293221581433414e-03
1.680703679435314e-02 1.208543314139018e-01 -5.684291251085938e-03
0.000000000000000e+00 0.000000000000000e+00 0.000000000000000e+00
-1.087746159282210e-02 3.102258520691414e-02 -2.173439290217516e-03
0.000000000000000e+00 0.000000000000000e+00 0.000000000000000e+00
-1.528385714824136e-01 3.847467021992722e-01 4.714136226444410e-02
-4.936366330465414e-02 1.168551584340022e-01 1.805242921542316e-02
-1.528385714824136e-01 3.847467021992722e-01 4.714136226444410e-02
-4.746837806572748e-01 1.159835191194672e+00 -4.079611721053311e-03
-2.925305083438801e-01 7.328400277961094e-01 4.242103292198962e-02
        </DataArray>
        <DataArray type="Float64" Name="lambda" NumberOfComponents="3" format="ascii">
1.161072375480725e-02 -1.342469859859406e-02 -4.523296085675295e-03
1.037036680758051e-03 -9.874831128377337e-04 -1.929579192248011e-03
-4.543658722359750e-04 2.723383272665044e-04 7.697006287392266e-04
1.037036680758051e-03 -9.874831128377337e-04 -1.929579192248011e-03
-1.010752208479297e-02 3.616136730798363e-02 -9.270621124751875e-03
4.022147518010935e-03 1.807850973992136e-03 2.968059185811142e-03
6.233355323367670e-02 6.168622612604044e-03 1.959186190347403e-03
6.540167865697037e-03 6.238728836913597e-03 -8.510515418963515e-04
2.423550038392462e-03 -4.833364058576240e-03 -5.376140162447936e-03
6.540167865697037e-03 6.238728836913597e-03 -8.510515418963515e-04
6.906123901941096e-03 8.879123167581736e-03 3.606423044988711e-03
-8.239668248386218e-04 -7.781030913029613e-04 6.998695316253565e-05
-2.343462903907129e-03 4.881184415844407e-05 -1.809414648387484e-04
1.577689934602885e-03 5.064221653570328e-03 4.587207046933583e-03
2.977232446148323e-03 -3.784765225590785e-03 -3.435625975633602e-04
1.577689934602885e-03 5.064221653570328e-03 4.587207046933583e-03
-1.652228551416803e-02 3.245906627489232e-02 -1.767332469920385e-03
5.377923230155902e-03 3.179502007682908e-03 2.157350530731433e-03
        </DataArray>
        <DataArray type="Int32" Name="uid_0_pair_beam_id" format="ascii">
281
281
281
282
282
282
283
283
283
284
284
284
285
285
285
286
286
286
        </DataArray>
      </PointData>

    </Piece>
  </UnstructuredGrid>
</VTKFile>
