<?xml version="1.0" ?> 
<!-- 
# vtk DataFile Version 3.0
-->
<VTKFile type="UnstructuredGrid" version="0.1" compressor="vtkZLibDataCompressor" byte_order="LittleEndian">
  <UnstructuredGrid>
    <FieldData>
      <DataArray type="Float64" Name="TIME" NumberOfTuples="1" format="ascii">
3.000000000000000e+00 
      </DataArray>
    </FieldData>

    <Piece NumberOfPoints="60" NumberOfCells="10" >
      <Points>
        <DataArray type="Float64" NumberOfComponents="3" format="ascii">
1.000000000000000e-01 3.000000000000000e-01 7.500000000000000e+00
2.990172929322416e-01 3.200461465493198e-01 7.612376374370099e+00
4.867080639921429e-01 3.757097920745562e-01 7.731781389874164e+00
6.648594205413538e-01 4.592901717922669e-01 7.854728301549198e+00
8.352584699415239e-01 5.630865209190097e-01 7.977730364432203e+00
9.996923195543026e-01 6.793980746713417e-01 8.097300833560180e+00
9.996923195543026e-01 6.793980746713417e-01 8.097300833560180e+00
1.158950316958525e+00 8.071408390812198e-01 8.210523044755291e+00
1.312299559647711e+00 9.494918826947178e-01 8.316854379019437e+00
1.459243779855538e+00 1.105142034499569e+00 8.416369159159219e+00
1.599286709815682e+00 1.272782123483507e+00 8.509141707981239e+00
1.731932081761821e+00 1.451102978634266e+00 8.595246348292104e+00
1.415276602060384e+00 3.812278204324618e-01 9.979322581153626e+00
1.265170182280358e+00 4.818174003991025e-01 1.011088723139639e+01
1.125254935926807e+00 5.802098491062398e-01 1.025182708271538e+01
9.912344620157876e-01 6.729897620970204e-01 1.039990147399739e+01
8.588123595633564e-01 7.567417349145917e-01 1.055286974412918e+01
7.236922275855711e-01 8.280503631021003e-01 1.070849123199755e+01
7.236922275855711e-01 8.280503631021003e-01 1.070849123199755e+01
5.847719176349259e-01 8.869308517496014e-01 1.086602710347876e+01
4.434651451133393e-01 9.348316292558273e-01 1.102531774552145e+01
2.992493048085183e-01 9.704871261280923e-01 1.118499132862378e+01
1.516017915081695e-01 9.926317728737116e-01 1.134367602328391e+01
0.000000000000000e+00 1.000000000000000e+00 1.150000000000000e+01
1.000000000000000e-01 3.000000000000000e-01 1.250000000000000e+01
2.987332598817193e-01 3.206028352232063e-01 1.261238986224791e+01
4.857913952065634e-01 3.777041938535207e-01 1.273183407445633e+01
6.631171038638454e-01 4.631838903823713e-01 1.285479726092891e+01
8.326530837428784e-01 5.689217393011858e-01 1.297774404596929e+01
9.963420327329753e-01 6.867975551013923e-01 1.309713905388114e+01
9.963420327329753e-01 6.867975551013923e-01 1.309713905388114e+01
1.154765984503516e+00 8.158893021030815e-01 1.321007574115503e+01
1.306947261374397e+00 9.597541537063208e-01 1.331605386478170e+01
1.452488994210704e+00 1.116990738022502e+00 1.341514749981505e+01
1.590994313877523e+00 1.286197683163018e+00 1.350743072130894e+01
1.722066351239941e+00 1.465973617239261e+00 1.359297760431728e+01
1.238441542203431e+00 1.680522775158062e-01 1.496133112779530e+01
1.135170403433568e+00 3.062191546838967e-01 1.510299648448231e+01
1.037202775816947e+00 4.390167630283955e-01 1.525139703002537e+01
9.380720622699885e-01 5.636262812626867e-01 1.540382011527414e+01
8.313116657091133e-01 6.772288881001545e-01 1.555755309107830e+01
7.104549890507423e-01 7.770057622541827e-01 1.570988330828752e+01
7.104549890507423e-01 7.770057622541827e-01 1.570988330828752e+01
5.768592531763489e-01 8.564563984882809e-01 1.586314655804067e+01
4.373220007474302e-01 9.139681596062407e-01 1.602040817938160e+01
2.935371173506339e-01 9.540540263817329e-01 1.618004984501721e+01
1.471984885726078e-01 9.812269795884290e-01 1.634045322765438e+01
0.000000000000000e+00 1.000000000000000e+00 1.650000000000000e+01
1.409124009089232e+00 3.748749118879711e-01 1.997839010812160e+01
1.260715560698604e+00 4.773500599752081e-01 2.011024856569909e+01
1.122696212486525e+00 5.775442748494388e-01 2.025166454391628e+01
9.903600693589727e-01 6.718095357513441e-01 2.040020403706745e+01
8.590012362219226e-01 7.564978219216046e-01 2.055343303944690e+01
7.239138179813516e-01 8.279611126009012e-01 2.070891754534891e+01
7.239138179813516e-01 8.279611126009012e-01 2.070891754534891e+01
5.845603594857537e-01 8.866371403006023e-01 2.086614575221986e+01
4.431213007636295e-01 9.345090079791561e-01 2.102528435723424e+01
2.989675894911691e-01 9.702467505477694e-01 2.118491710427825e+01
1.514701733445625e-01 9.925204029176486e-01 2.134362773723810e+01
0.000000000000000e+00 1.000000000000000e+00 2.150000000000000e+01
        </DataArray>
      </Points>

      <Cells>
        <DataArray type="Int32" Name="connectivity" format="ascii">
0 1 2 3 4 5 6 7 8 9 10 11 12 13 14 15 16 17 18 19 20 21 22 23 24 25 26 27 28 29 30 31 32 33 34 35 36 37 38 39 40 41 42 43 44 45 46 47 48 49 50 51 52 53 54 55 56 57 58 59 
        </DataArray>
        <DataArray type="Int32" Name="offsets" format="ascii">
6 12 18 24 30 36 42 48 54 60 
        </DataArray>
        <DataArray type="UInt8" Name="types" format="ascii">
4 4 4 4 4 4 4 4 4 4 
        </DataArray>
      </Cells>

  <PointData>
        <DataArray type="Float64" Name="base_vector_1" NumberOfComponents="3" format="ascii">
8.858315352803766e-01 -1.721391635226642e-17 4.640069946701352e-01
8.446199868863109e-01 1.693351397907441e-01 5.078805845710360e-01
7.935484433400390e-01 3.042563412219662e-01 5.269809739438639e-01
7.460287818394633e-01 4.052300194171752e-01 5.284218845111188e-01
7.114089342114598e-01 4.748118313183903e-01 5.181226236753143e-01
6.955037554215024e-01 5.158110528641114e-01 5.002134383818612e-01
6.955037554215022e-01 5.158110528641116e-01 5.002134383818614e-01
6.679015914064219e-01 5.782163854825240e-01 4.685864656136524e-01
6.380883163198561e-01 6.338190583565844e-01 4.371689625763294e-01
6.068622480469182e-01 6.829465421899288e-01 4.065737724033125e-01
5.749380308637311e-01 7.259965986430605e-01 3.773263831555418e-01
5.429463044617828e-01 7.634130372248850e-01 3.498711835324108e-01
-6.831809432687603e-01 4.551351852892779e-01 5.710654619797115e-01
-6.420900007693247e-01 4.502653824452119e-01 6.204687875175633e-01
-6.165164124015097e-01 4.341846454018881e-01 6.568037811529475e-01
-6.073766407705237e-01 4.046497675074306e-01 6.836316127144041e-01
-6.137707678836148e-01 3.590073038805832e-01 7.031352645486880e-01
-6.330976239297368e-01 2.943138918051527e-01 7.159376590632924e-01
-6.330976239297368e-01 2.943138918051527e-01 7.159376590632924e-01
-6.419284976898179e-01 2.448699800894989e-01 7.266130309213167e-01
-6.546077233611545e-01 1.917256423141393e-01 7.312523549330673e-01
-6.704868420890369e-01 1.338253101733190e-01 7.297521366481137e-01
-6.884909174620764e-01 7.019052657257524e-02 7.218403885567042e-01
-7.071067811881107e-01 -1.052102849286030e-12 7.071067811849856e-01
8.858315352803766e-01 -6.926046138963558e-17 4.640069946701355e-01
8.433304711156175e-01 1.740424256182909e-01 5.084318544041200e-01
7.905259938241258e-01 3.116421542786493e-01 5.272075689564224e-01
7.418135470168594e-01 4.134180768169672e-01 5.280134043972996e-01
7.071069549965754e-01 4.822226728147965e-01 5.171663639669783e-01
6.924504656864956e-01 5.210839985561411e-01 4.989827842915016e-01
6.924504656864958e-01 5.210839985561411e-01 4.989827842915013e-01
6.634832971422315e-01 5.844016319597740e-01 4.671880210108414e-01
6.325745078627231e-01 6.404477675934127e-01 4.355182533337124e-01
6.005929228818541e-01 6.896076753261144e-01 4.046348911247569e-01
5.683085084114121e-01 7.323409632228114e-01 3.751028563648652e-01
5.363935934520223e-01 7.691532833572980e-01 3.473976678164589e-01
-4.689331368580492e-01 6.289303310757198e-01 6.201196270151883e-01
-4.422200456462990e-01 6.089333483662474e-01 6.585146987547481e-01
-4.417315930520038e-01 5.822787433852641e-01 6.825134904904209e-01
-4.681257234700849e-01 5.452868504781536e-01 6.953564249514244e-01
-5.196872847812029e-01 4.926990297493368e-01 6.979776444276738e-01
-5.919851793476034e-01 4.181312101062520e-01 6.889991571604920e-01
-5.919851793476034e-01 4.181312101062520e-01 6.889991571604920e-01
-6.238991899082151e-01 3.187236383279612e-01 7.135580167042206e-01
-6.484106629005872e-01 2.266705733129687e-01 7.267627284270923e-01
-6.687606657770029e-01 1.429130413447533e-01 7.296129347284721e-01
-6.876410512133875e-01 6.753936736882599e-02 7.229026342057188e-01
-7.071067811881102e-01 -1.052102849286030e-12 7.071067811849854e-01
-6.767758330777744e-01 4.635145346562534e-01 5.719517006918347e-01
-6.339800842852834e-01 4.585563130400536e-01 6.227321739726792e-01
-6.084487015984914e-01 4.417049307708842e-01 6.593079186964160e-01
-6.012197284363816e-01 4.105515076818973e-01 6.855525491740265e-01
-6.112566599149440e-01 3.621402439644880e-01 7.037185086460135e-01
-6.355579561214206e-01 2.931292619590922e-01 7.142417799275548e-01
-6.355579561214195e-01 2.931292619590922e-01 7.142417799275543e-01
-6.430050971229417e-01 2.444827550291340e-01 7.257910357446427e-01
-6.547909785146291e-01 1.919318121799376e-01 7.310341674157099e-01
-6.702404601360721e-01 1.343426089123605e-01 7.298834078311461e-01
-6.882165667016196e-01 7.066107146161943e-02 7.220560714358213e-01
-7.071067811881102e-01 -1.051991826983567e-12 7.071067811849854e-01
        </DataArray>
        <DataArray type="Float64" Name="base_vector_2" NumberOfComponents="3" format="ascii">
2.384536362881534e-17 1.000000000000000e+00 -8.424568520017449e-18
-1.479113839186774e-01 9.855440417923952e-01 -8.261455195527777e-02
-2.621501935239801e-01 9.524717620798666e-01 -1.551606215372112e-01
-3.455424155113911e-01 9.139079871992644e-01 -2.130085209937444e-01
-4.021020334812658e-01 8.796535280021315e-01 -2.540150100754566e-01
-4.354227722396610e-01 8.563459063171803e-01 -2.776305065170890e-01
-4.354227722396611e-01 8.563459063171803e-01 -2.776305065170891e-01
-4.860893652279903e-01 8.156786928341199e-01 -3.136644689292543e-01
-5.316713554562034e-01 7.733862536090630e-01 -3.452524764804761e-01
-5.722952914876620e-01 7.304396350088107e-01 -3.727412493261882e-01
-6.081586446249425e-01 6.876966363129933e-01 -3.965052324645260e-01
-6.395112568461127e-01 6.459052912758252e-01 -4.169312977805782e-01
-1.455357859140178e-01 6.814666656852915e-01 -7.172325414941521e-01
-2.545193813052518e-01 6.382375891236505e-01 -7.265484597531139e-01
-3.556930874132116e-01 5.906327165209296e-01 -7.243172107174899e-01
-4.469738579224195e-01 5.373427802746956e-01 -7.151762767462363e-01
-5.266620249449063e-01 4.773018253951259e-01 -7.034273800154582e-01
-5.930921059000436e-01 4.099101480643789e-01 -6.929757747806851e-01
-5.930921059000436e-01 4.099101480643789e-01 -6.929757747806851e-01
-6.461233720971623e-01 3.374990718621971e-01 -6.845574954099527e-01
-6.850093960713237e-01 2.587244705783065e-01 -6.810460892024675e-01
-7.088090853989978e-01 1.750254756939107e-01 -6.833416153827874e-01
-7.165177292628975e-01 8.811036245282267e-02 -6.919818694737412e-01
-7.071067811849856e-01 -4.360956040727615e-13 -7.071067811881100e-01
6.097115229394943e-17 1.000000000000000e+00 3.286651304925739e-17
-1.519776352367750e-01 9.847222989177490e-01 -8.499877882641102e-02
-2.683836878475370e-01 9.500704425097554e-01 -1.591739625902225e-01
-3.523253390463577e-01 9.102101658596899e-01 -2.176793730042992e-01
-4.081608836080165e-01 8.755882567665094e-01 -2.583600156853003e-01
-4.397007762349220e-01 8.531391189923070e-01 -2.807434256103560e-01
-4.397007762349219e-01 8.531391189923070e-01 -2.807434256103560e-01
-4.910749348778050e-01 8.112455414425459e-01 -3.173737226431172e-01
-5.369555556327444e-01 7.678935723875063e-01 -3.493110258223813e-01
-5.775307482596697e-01 7.241462461570196e-01 -3.769223381431821e-01
-6.130611764277395e-01 6.809342499701190e-01 -4.006052186063825e-01
-6.438581489470341e-01 6.390611329791825e-01 -4.207701894738534e-01
-9.748048135941523e-02 6.609585757888223e-01 -7.440640542622312e-01
-2.121776203946510e-01 6.423410684227669e-01 -7.364635830923086e-01
-3.164373558384486e-01 6.107433382509193e-01 -7.258512069371343e-01
-4.085672010058038e-01 5.641815968968464e-01 -7.174761096964885e-01
-4.859351917478674e-01 5.014868644848810e-01 -7.158057796428346e-01
-5.445618149391780e-01 4.227058046798349e-01 -7.244116456822890e-01
-5.445618149391780e-01 4.227058046798349e-01 -7.244116456822890e-01
-6.193215964301897e-01 3.552370552330369e-01 -7.001766882612714e-01
-6.731399075191530e-01 2.752009886259814e-01 -6.864015448441159e-01
-7.056685726661016e-01 1.869530901653025e-01 -6.834328113494638e-01
-7.169254381816521e-01 9.419990241795062e-02 -6.907563206171156e-01
-7.071067811849854e-01 -4.360956040727615e-13 -7.071067811881100e-01
-1.444413784932336e-01 6.782054881171502e-01 -7.205373023423234e-01
-2.546459909221507e-01 6.365540307944939e-01 -7.279796598714546e-01
-3.564143104379013e-01 5.901926497063423e-01 -7.243213896798040e-01
-4.476792499136253e-01 5.375888233906208e-01 -7.145498906040516e-01
-5.266958579285177e-01 4.775405514342275e-01 -7.032399981349449e-01
-5.916407709346158e-01 4.094327819082892e-01 -6.944969368303457e-01
-5.916407709346154e-01 4.094327819082896e-01 -6.944969368303453e-01
-6.454206816528174e-01 3.371751517062695e-01 -6.853795012740509e-01
-6.848427140567912e-01 2.585204091459457e-01 -6.812911676062895e-01
-7.089585521402191e-01 1.749023293336314e-01 -6.832180812455964e-01
-7.167373440537188e-01 8.804255246220460e-02 -6.917630292193718e-01
-7.071067811849854e-01 -4.358735594678365e-13 -7.071067811881100e-01
        </DataArray>
        <DataArray type="Float64" Name="base_vector_3" NumberOfComponents="3" format="ascii">
-4.640069946701352e-01 1.852716398038494e-17 8.858315352803766e-01
-5.145282307701199e-01 -5.343418340243683e-03 8.574567905270862e-01
-5.491430998455143e-01 -1.502069461431260e-02 8.355933428560587e-01
-5.692464279639176e-01 -2.368168694466458e-02 8.218258221507616e-01
-5.763777259699978e-01 -2.762961298099867e-02 8.167161817254354e-01
-5.715606141169242e-01 -2.471126214955349e-02 8.201876723733786e-01
-5.715606141169244e-01 -2.471126214955355e-02 8.201876723733785e-01
-5.635819312300731e-01 -1.827789965906854e-02 8.258579328038416e-01
-5.569280656992022e-01 -1.212864347365156e-02 8.304721703007478e-01
-5.515399452773051e-01 -6.477663082884610e-03 8.341233293970933e-01
-5.473475346016355e-01 -1.508364180785315e-03 8.369040573464857e-01
-5.442744370613036e-01 2.624747029371405e-03 8.389031218589147e-01
-7.155998419317851e-01 -5.731100650585941e-01 -3.993265825808971e-01
-7.231461231673996e-01 -6.244308330000187e-01 -2.952047075282884e-01
-7.024172127774415e-01 -6.801740129351782e-01 -2.096982864060335e-01
-6.567404255718262e-01 -7.399468238615817e-01 -1.455015851353321e-01
-5.881433124439056e-01 -8.020578054198311e-01 -1.038783942532584e-01
-4.974225090338935e-01 -8.633382903615152e-01 -8.495789487788952e-02
-4.974225090338935e-01 -8.633382903615152e-01 -8.495789487788952e-02
-4.128588038100748e-01 -9.089186263594360e-01 -5.843405491141618e-02
-3.197668772870733e-01 -9.467327639852787e-01 -3.802917021008989e-02
-2.191736184884224e-01 -9.754265063115395e-01 -2.249568277595482e-02
-1.121721900658545e-01 -9.936346682799957e-01 -1.037042756751161e-02
1.051936315832336e-12 -1.000000000000000e+00 -4.363176486776865e-13
-4.640069946701355e-01 -8.231525762456094e-19 8.858315352803766e-01
-5.154575781533806e-01 -5.588210719456983e-03 8.568968765406995e-01
-5.504896449396066e-01 -1.566275665009939e-02 8.346950514220063e-01
-5.705957561427663e-01 -2.455499392457484e-02 8.208638957496115e-01
-5.774118523963589e-01 -2.839891610500660e-02 8.159589783048327e-01
-5.719926397681728e-01 -2.500220177852264e-02 8.198776188903216e-01
-5.719926397681725e-01 -2.500220177852253e-02 8.198776188903217e-01
-5.644779205141979e-01 -1.885216306802995e-02 8.252328599853640e-01
-5.581471340761004e-01 -1.288869545639013e-02 8.296418855458468e-01
-5.529433748575504e-01 -7.312202678374430e-03 8.331867473100691e-01
-5.487999938267418e-01 -2.293644156428742e-03 8.359505403863627e-01
-5.456451199617987e-01 2.023614600546730e-03 8.380139068331879e-01
-8.778378374793419e-01 -4.093658507303671e-01 -2.486369468630838e-01
-8.714482707724249e-01 -4.654010411086001e-01 -1.548540677631112e-01
-8.394882962434385e-01 -5.366041742139185e-01 -8.552988183371024e-02
-7.835375863912932e-01 -6.199688511679761e-01 -4.132159597071472e-02
-7.027034335035695e-01 -7.111670625339627e-01 -2.119654946235516e-02
-5.941430611754507e-01 -8.040435895056034e-01 -2.253728093649010e-02
-5.941430611754507e-01 -8.040435895056034e-01 -2.253728093649010e-02
-4.766451101469887e-01 -8.787615586496416e-01 -2.423967847596065e-02
-3.555928530523746e-01 -9.342830765101404e-01 -2.586224670866466e-02
-2.340748543968101e-01 -9.719179001804822e-01 -2.417763114689264e-02
-1.147506025003562e-01 -9.932596902320500e-01 -1.635502937747146e-02
1.052102849286030e-12 -1.000000000000000e+00 -4.360956040727615e-13
-7.218802947448140e-01 -5.702557251358158e-01 -3.920424058810041e-01
-7.302223442465334e-01 -6.201008576436541e-01 -2.867930513675381e-01
-7.090550167922000e-01 -6.756991862991220e-01 -2.016719930890720e-01
-6.619049231843338e-01 -7.365091421738154e-01 -1.394136153994037e-01
-5.907256291634645e-01 -8.005057560300461e-01 -1.011620759583083e-01
-4.960113734367965e-01 -8.639676110145320e-01 -8.679103950976796e-02
-4.960113734367962e-01 -8.639676110145313e-01 -8.679103950976708e-02
-4.122821712962242e-01 -9.091430578106059e-01 -5.901111476706999e-02
-3.197487004808359e-01 -9.467467335715177e-01 -3.783372850352951e-02
-2.194436076622668e-01 -9.753774851944710e-01 -2.198327618619711e-02
-1.124523763922181e-01 -9.936073278392407e-01 -9.946914491794967e-03
1.051991826983567e-12 -1.000000000000000e+00 -4.358735594678365e-13
        </DataArray>
        <DataArray type="Float64" Name="displacement" NumberOfComponents="3" format="ascii">
0.000000000000000e+00 0.000000000000000e+00 0.000000000000000e+00
-1.098270706778370e-02 2.004614654931980e-02 2.376374370147261e-03
-3.329193600786967e-02 7.570979207455625e-02 1.178138987418720e-02
-6.514057945863350e-02 1.592901717922670e-01 2.472830154917371e-02
-1.047415300584510e-01 2.630865209190097e-01 3.773036443215450e-02
-1.503076804456973e-01 3.793980746713417e-01 4.730083356017900e-02
-1.503076804456973e-01 3.793980746713417e-01 4.730083356017900e-02
-2.010496830415003e-01 5.071408390812198e-01 5.052304475533909e-02
-2.577004403523013e-01 6.494918826947178e-01 4.685437901946088e-02
-3.207562201444496e-01 8.051420344995690e-01 3.636915915919481e-02
-3.907132901842927e-01 9.727821234835072e-01 1.914170798119130e-02
-4.680679182381793e-01 1.151102978634266e+00 -4.753651707895656e-03
4.152766020603840e-01 3.812278204324618e-01 5.011890794362550e-02
2.778642183048152e-01 3.255406235721733e-01 2.462375145772455e-02
1.750527727537055e-01 2.715412417182532e-01 8.474057123862622e-03
1.010784035141984e-01 2.193570344427410e-01 -5.510102216543800e-04
5.017724869343865e-02 1.691153613176768e-01 -4.672285742524096e-03
1.658544639857107e-02 1.209435819151004e-01 -6.110604602447722e-03
1.658544639857107e-02 1.209435819151004e-01 -6.110604602447722e-03
-2.854455960864644e-03 7.829574088024405e-02 -5.634539851067544e-03
-1.016758254003691e-02 4.467557075505024e-02 -3.433443463379149e-03
-9.419302579348532e-03 2.028496295577409e-02 -8.593189911376697e-04
-4.674985319202019e-03 5.325808898672069e-03 7.358300139035379e-04
0.000000000000000e+00 0.000000000000000e+00 0.000000000000000e+00
0.000000000000000e+00 0.000000000000000e+00 0.000000000000000e+00
-1.126674011830597e-02 2.060283522320627e-02 2.389862247962782e-03
-3.420860479344917e-02 7.770419385352073e-02 1.183407445635787e-02
-6.688289613614196e-02 1.631838903823713e-01 2.479726092888512e-02
-1.073469162570965e-01 2.689217393011858e-01 3.774404596924619e-02
-1.536579672670246e-01 3.867975551013923e-01 4.713905388113915e-02
-1.536579672670246e-01 3.867975551013923e-01 4.713905388113915e-02
-2.052340154965091e-01 5.158893021030815e-01 5.007574115507829e-02
-2.630527386256156e-01 6.597541537063207e-01 4.605386478172768e-02
-3.275110057892840e-01 8.169907380225021e-01 3.514749981502163e-02
-3.990056861224522e-01 9.861976831630181e-01 1.743072130889622e-02
-4.779336487600587e-01 1.165973617239261e+00 -7.022395682717786e-03
2.384415422034312e-01 1.680522775158062e-01 3.212745459529920e-02
1.478644394579098e-01 1.499423778564298e-01 1.673300455211546e-02
8.700061264349879e-02 1.303481556400204e-01 8.044004440083796e-03
4.791600376787963e-02 1.099935536084370e-01 3.367631058864617e-03
2.267655483873365e-02 8.960251450353807e-02 1.106120812366385e-05
3.348207863742347e-03 6.989898106718273e-02 -4.718528312482206e-03
3.348207863742347e-03 6.989898106718273e-02 -4.718528312482206e-03
-1.076712041944161e-02 4.782128761892357e-02 -8.515085289154456e-03
-1.631072690594604e-02 2.381210110546361e-02 -8.343009603226648e-03
-1.513149003723296e-02 3.851863209414663e-03 -5.800802597711652e-03
-9.078288254763700e-03 -6.078984386610586e-03 -2.486965615631220e-03
0.000000000000000e+00 0.000000000000000e+00 0.000000000000000e+00
4.091240090892316e-01 3.748749118879711e-01 4.918643492160157e-02
2.734095967229455e-01 3.210732831477413e-01 2.398508576889213e-02
1.724940493130771e-01 2.688756674610639e-01 8.311518330994971e-03
1.002040108568639e-01 2.181768080970943e-01 -2.484471478219064e-04
5.036612535154306e-02 1.688714483249883e-01 -4.108990423269177e-03
1.680703679435158e-02 1.208543314139012e-01 -5.684291251085938e-03
1.680703679435158e-02 1.208543314139012e-01 -5.684291251085938e-03
-3.066014110036819e-03 7.800202943124490e-02 -5.515891109965310e-03
-1.051142688974677e-02 4.435294947837909e-02 -3.466831750589705e-03
-9.701017896697750e-03 2.004458737545123e-02 -9.335433366715051e-04
-4.806603482809008e-03 5.214438942609090e-03 6.875439680946727e-04
0.000000000000000e+00 0.000000000000000e+00 0.000000000000000e+00
        </DataArray>
  </PointData>
  <CellData>
        <DataArray type="Float64" Name="axial_strain_GPs" NumberOfComponents="3" format="ascii">
-2.215315959582431e-02 -2.065850030071192e-02 -1.725907980498909e-02
-1.725907980498920e-02 -4.054483055914937e-03 7.170392999898967e-03
1.222951656186178e-02 -8.643155091581312e-03 -1.859419060993606e-02
-1.859419060993606e-02 -1.809651988000749e-02 -1.794843237372490e-02
-2.239988143900229e-02 -2.034883246646202e-02 -1.694798770418648e-02
-1.694798770418648e-02 -4.030866045686365e-03 7.230431542654903e-03
8.064887000893695e-03 -7.666558489367592e-03 -1.263627751245955e-02
-1.263627751245955e-02 -1.590887403446872e-02 -2.685281548768259e-02
1.176926603880846e-02 -8.971051661425644e-03 -1.853015186512286e-02
-1.853015186512408e-02 -1.836049988932620e-02 -1.808293854875220e-02
        </DataArray>
        <DataArray type="Float64" Name="cross_section_radius" format="ascii">
1.000000000000000e-01
1.000000000000000e-01
1.000000000000000e-01
1.000000000000000e-01
1.000000000000000e-01
1.000000000000000e-01
1.000000000000000e-01
1.000000000000000e-01
1.000000000000000e-01
1.000000000000000e-01
        </DataArray>
        <DataArray type="Float64" Name="curvature_2_GPs" NumberOfComponents="3" format="ascii">
-2.414506919429403e-01 -1.091072984584351e-01 2.350357880217229e-02
4.900623745052494e-02 3.636551229196418e-02 2.372225092965669e-02
6.903745942200534e-01 4.550007173243866e-01 2.228756628026922e-01
2.861773997669551e-01 2.297755656169502e-01 1.811041569411462e-01
-2.459935889790327e-01 -1.095895488718452e-01 2.710477534980598e-02
4.642985871998374e-02 3.548532029023505e-02 2.453870167418568e-02
5.921832255388524e-01 3.109261015914244e-01 4.123517876795318e-02
4.988109248943234e-02 1.132959466653430e-01 1.884898599013787e-01
6.968356795214000e-01 4.434347711338391e-01 1.940883765841944e-01
2.923590563395292e-01 2.317029780611818e-01 1.790507335042663e-01
        </DataArray>
        <DataArray type="Float64" Name="curvature_3_GPs" NumberOfComponents="3" format="ascii">
7.099574432949972e-01 4.582161603898486e-01 2.066163294951479e-01
3.122383868341450e-01 2.750567933435747e-01 2.378760636717058e-01
-2.112077292494737e-01 -1.779952170699800e-01 -1.224844350377498e-01
-8.892353721235824e-02 -1.958524387494175e-03 8.945202312524185e-02
7.296683334684685e-01 4.634417201645784e-01 1.973647279281198e-01
3.182178302148211e-01 2.773842741121558e-01 2.365512764398195e-01
-2.018643106382695e-01 -9.574383801538174e-02 3.792654194715031e-02
-1.656280221660425e-01 -3.304050575541653e-02 9.378915254657992e-02
-2.176203884960687e-01 -1.766757620711209e-01 -1.117415022039852e-01
-9.406410078860489e-02 -4.024999827264252e-03 9.082809044330875e-02
        </DataArray>
        <DataArray type="Float64" Name="element_owner" format="ascii">
1.000000000000000e+00
1.000000000000000e+00
1.000000000000000e+00
1.000000000000000e+00
1.000000000000000e+00
1.000000000000000e+00
1.000000000000000e+00
1.000000000000000e+00
1.000000000000000e+00
1.000000000000000e+00
        </DataArray>
        <DataArray type="Float64" Name="material_axial_force_GPs" NumberOfComponents="3" format="ascii">
-6.959620344004389e-03 -6.490059277889911e-03 -5.422099832307367e-03
-5.422099832307402e-03 -1.273753418256666e-03 2.252645397183427e-03
3.842015938769966e-03 -2.715327253954907e-03 -5.841537261962343e-03
-5.841537261962343e-03 -5.685189391057317e-03 -5.638666328874735e-03
-7.037130297005196e-03 -6.392774258576655e-03 -5.324367366460241e-03
-5.324367366460241e-03 -1.266333915673283e-03 2.271507061668856e-03
2.533658975403945e-03 -2.408520382851369e-03 -3.969803660186482e-03
-3.969803660186482e-03 -4.997920179357235e-03 -8.436060786430584e-03
3.697423972566449e-03 -2.818338999450931e-03 -5.821418896937317e-03
-5.821418896937700e-03 -5.768121156854340e-03 -5.680922690007559e-03
        </DataArray>
        <DataArray type="Float64" Name="material_bending_moment_2_GPs" NumberOfComponents="3" format="ascii">
-1.896349300030284e-04 -8.569267182251219e-05 1.845966762449332e-05
3.848940888866155e-05 2.856140656511601e-05 1.863141231180578e-05
5.422189383566887e-04 3.573567277310949e-04 1.750461362312234e-04
2.247632041828239e-04 1.804653072291626e-04 1.422388722452195e-04
-1.932029129916791e-04 -8.607143041150212e-05 2.128804077903805e-05
3.646592576547824e-05 2.787010538352082e-05 1.927265122706333e-05
4.650996177329917e-04 2.442007891422331e-04 3.238603367171589e-05
3.917651842945842e-05 8.898242843133569e-05 1.480395897855852e-04
5.472934628859206e-04 3.482728548350851e-04 1.524366545060186e-04
2.296182659016774e-04 1.819790934229715e-04 1.406261172492167e-04
        </DataArray>
        <DataArray type="Float64" Name="material_bending_moment_3_GPs" NumberOfComponents="3" format="ascii">
5.575992720542389e-04 3.598821308092177e-04 1.622760857134112e-04
2.452314555617195e-04 2.160291003220351e-04 1.868274235239723e-04
-1.658821626478822e-04 -1.397971165802924e-04 -9.619905032342276e-05
-6.984038280939082e-05 -1.538221456907038e-06 7.025545467475104e-05
5.730801689954121e-04 3.639862758590141e-04 1.550098948341824e-04
2.499276994110416e-04 2.178570994430216e-04 1.857869380651563e-04
-1.585438588307889e-04 -7.519703453390361e-05 2.978743638930814e-05
-1.300839444163616e-04 -2.594995253802697e-05 7.366182815668700e-05
-1.709186534426516e-04 -1.387608190475029e-04 -8.776157060628187e-05
-7.387777200100275e-05 -3.161227472008391e-06 7.133621541907204e-05
        </DataArray>
        <DataArray type="Float64" Name="material_shear_force_2_GPs" NumberOfComponents="3" format="ascii">
-2.183431002869121e-04 4.218502346527005e-04 -1.278074564862420e-04
-1.278074564862595e-04 6.335366801439372e-05 9.732751773207827e-04
6.029451431462465e-04 -2.345884075227096e-04 -1.714190803240143e-04
-1.714190803239968e-04 -2.036582992216124e-04 -4.667271731390873e-04
-2.340006468861372e-04 4.462591138425015e-04 -1.526832238370200e-04
-1.526832238370200e-04 6.957821129059882e-05 9.700669377970816e-04
5.530402823443065e-04 -3.182938370868617e-04 3.509631880940859e-04
3.509631880940685e-04 -2.420171804015225e-04 -5.759131776929730e-03
6.224991096891103e-04 -2.451124442389643e-04 -1.377903179056126e-04
-1.377903179055778e-04 -2.100978732735121e-04 -5.325181459828400e-04
        </DataArray>
        <DataArray type="Float64" Name="material_shear_force_3_GPs" NumberOfComponents="3" format="ascii">
1.022162332146994e-04 2.220576071828903e-04 8.257683945631852e-05
8.257683945627492e-05 -2.154092542481194e-05 -1.020470801095024e-04
2.895802938897811e-03 -3.480362335437239e-04 8.169010991712324e-05
8.169010991712324e-05 -9.256630697738854e-05 3.125096552324838e-04
1.108650548776573e-04 2.289525604424371e-04 7.210770104596368e-05
7.210770104601600e-05 -1.865081175917181e-05 -1.043758324715105e-04
2.432425652223430e-03 -4.552214116050023e-04 -2.383175005616129e-05
-2.383175005616156e-05 1.364131684516700e-04 -1.137141519715940e-02
2.913216609936538e-03 -3.799195143456581e-04 1.465137604818938e-04
1.465137604819973e-04 -9.903861095723612e-05 2.551574611792778e-04
        </DataArray>
        <DataArray type="Float64" Name="material_torque_GPs" NumberOfComponents="3" format="ascii">
1.320939335879707e-06 -1.659738603919836e-06 1.348271451962139e-06
-8.537751102572488e-08 1.061074474747232e-07 -8.552136020678405e-08
-1.250770181400897e-05 -4.443232021626957e-05 -6.873277650079824e-05
-8.216143412979768e-05 -8.466235897279291e-05 -8.311235768817010e-05
1.353947319107303e-06 -1.703663282583146e-06 1.383840192581271e-06
-6.375752323187318e-08 7.924554825014885e-08 -6.387529285076972e-08
-1.430447417868357e-05 -3.402064348780896e-05 -4.497919612974928e-05
-5.149365117731788e-05 -6.051170093916502e-05 -6.139834658504679e-05
-1.315687326784993e-05 -4.515670405746205e-05 -6.884019056146068e-05
-8.174744832144484e-05 -8.467035224457876e-05 -8.339753497128303e-05
        </DataArray>
        <DataArray type="Float64" Name="shear_strain_2_GPs" NumberOfComponents="3" format="ascii">
-1.390015348026860e-03 2.685582003578130e-03 -8.136475385515096e-04
-8.136475385516206e-04 4.033219770997465e-04 6.196062218369741e-03
3.838467997799022e-03 -1.493436185971808e-03 -1.091287758953341e-03
-1.091287758953230e-03 -1.296529000912316e-03 -2.971277467215705e-03
-1.489694385545195e-03 2.840973754713719e-03 -9.720115920347216e-04