<?xml version="1.0" ?> 
<!-- 
# vtk DataFile Version 3.0
-->
<VTKFile type="UnstructuredGrid" version="0.1" compressor="vtkZLibDataCompressor" byte_order="LittleEndian">
  <UnstructuredGrid>
    <FieldData>
      <DataArray type="Float64" Name="TIME" NumberOfTuples="1" format="ascii">
1.000000010000000e+00 
      </DataArray>
    </FieldData>

    <Piece NumberOfPoints="60" NumberOfCells="10" >
      <Points>
        <DataArray type="Float64" NumberOfComponents="3" format="ascii">
1.223102321726782e+00 1.754132821460743e-01 -5.686411640271827e-02
1.132100804103463e+00 3.177110506400250e-01 8.761868048310471e-02
1.036516829132235e+00 4.469680967190968e-01 2.389283034928039e-01
9.343499985729897e-01 5.637614010352511e-01 3.943176297624525e-01
8.235999141856138e-01 6.686679442404491e-01 5.510395364281242e-01
7.022661777299968e-01 7.622647069866521e-01 7.063469006258919e-01
7.022661777299968e-01 7.622647069866521e-01 7.063469006258919e-01
5.713676575640333e-01 8.411431916463118e-01 8.616917164146595e-01
4.342308044064723e-01 9.026485334054477e-01 1.019706209556349e+00
2.923165935588931e-01 9.484881621360886e-01 1.179413604741066e+00
1.470860003228757e-01 9.803695077102631e-01 1.339837126658915e+00
0.000000000000000e+00 1.000000000000000e+00 1.500000000000000e+00
1.000000000000000e-01 3.000000000000000e-01 2.500000000000000e+00
3.069708511608343e-01 3.068881310264640e-01 2.610222878110610e+00
5.118267033273802e-01 3.262436668550680e-01 2.722599697001295e+00
7.146394355268318e-01 3.574233221863773e-01 2.836122205758818e+00
9.154809267863833e-01 3.997838117209573e-01 2.949782153469945e+00
1.114423056133229e+00 4.526818501593732e-01 3.062571289221439e+00
1.114423056133229e+00 4.526818501593732e-01 3.062571289221439e+00
1.312781776661279e+00 5.131669001696928e-01 3.173676133505710e+00
1.510935284489839e+00 5.801525193825888e-01 3.282844097858438e+00
1.707548823184197e+00 6.557915649425350e-01 3.389908267931298e+00
1.901287636309641e+00 7.422368939940044e-01 3.494701729375964e+00
2.090816967431457e+00 8.416413636814697e-01 3.597057567844109e+00
1.343109444567724e+00 3.178569295749155e-01 4.944142822017486e+00
1.220769633499485e+00 4.330311844575431e-01 5.090462358706055e+00
1.099574956669233e+00 5.425838878833114e-01 5.240604311351217e+00
9.773498053287397e-01 6.439506169910070e-01 5.393838644424357e+00
8.519185707297764e-01 7.345669489194179e-01 5.549435322396856e+00
7.211056441241155e-01 8.118684608073311e-01 5.706664309740100e+00
7.211056441241155e-01 8.118684608073311e-01 5.706664309740100e+00
5.849053888297651e-01 8.760970264494495e-01 5.865357822782699e+00
4.447354231071703e-01 9.283322662041783e-01 6.025116120254265e+00
3.005550206193393e-01 9.672663770571147e-01 6.184861230230521e+00
1.523234550292798e-01 9.915915559938562e-01 6.343515180787191e+00
0.000000000000000e+00 1.000000000000000e+00 6.500000000000000e+00
1.000000000000000e-01 3.000000000000000e-01 1.750000000000000e+01
3.080892413279794e-01 3.044541203805571e-01 1.761049110789104e+01
5.155179342497821e-01 3.156464840633172e-01 1.772203577415970e+01
7.222804454499635e-01 3.332353934260621e-01 1.783419705962930e+01
9.283711416130791e-01 3.568791508465739e-01 1.794653802512312e+01
1.133784389423683e+00 3.862360587026343e-01 1.805862173146447e+01
1.133784389423683e+00 3.862360587026343e-01 1.805862173146447e+01
1.339418873134716e+00 4.190832883141827e-01 1.816989366096748e+01
1.545502749608199e+00 4.554341939188615e-01 1.828007829391865e+01
1.751024594442318e+00 4.983013522710072e-01 1.838915718809985e+01
1.954972983235253e+00 5.506973401249561e-01 1.849711190129296e+01
2.156336491585190e+00 6.156347342350448e-01 1.860392399127982e+01
1.000000000000000e-01 3.000000000000000e-01 2.250000000000000e+01
3.039161275887008e-01 3.124658248618972e-01 2.261188269876767e+01
5.026602868509731e-01 3.470106592043578e-01 2.272846970347267e+01
6.971736280632626e-01 3.997557221782608e-01 2.284753410459455e+01
8.883973015020149e-01 4.668222329344857e-01 2.296684899261281e+01
1.077272457443675e+00 5.443314106239112e-01 2.308418745800701e+01
1.077272457443675e+00 5.443314106239112e-01 2.308418745800701e+01
1.264636903600203e+00 6.309322048731616e-01 2.319801997364215e+01
1.450119384281272e+00 7.278492526654476e-01 2.330816698837396e+01
1.632847454659900e+00 8.350673041865286e-01 2.341442655666807e+01
1.811948669909102e+00 9.525711096221646e-01 2.351659673299010e+01
1.986550585201895e+00 1.080345419158115e+00 2.361447557180568e+01
        </DataArray>
      </Points>

      <Cells>
        <DataArray type="Int32" Name="connectivity" format="ascii">
0 1 2 3 4 5 6 7 8 9 10 11 12 13 14 15 16 17 18 19 20 21 22 23 24 25 26 27 28 29 30 31 32 33 34 35 36 37 38 39 40 41 42 43 44 45 46 47 48 49 50 51 52 53 54 55 56 57 58 59 
        </DataArray>
        <DataArray type="Int32" Name="offsets" format="ascii">
6 12 18 24 30 36 42 48 54 60 
        </DataArray>
        <DataArray type="UInt8" Name="types" format="ascii">
4 4 4 4 4 4 4 4 4 4 
        </DataArray>
      </Cells>

  <PointData>
        <DataArray type="Float64" Name="base_vector_1" NumberOfComponents="3" format="ascii">
-3.902297414705005e-01 6.691345617179112e-01 6.324394731406682e-01
-4.176578389756851e-01 6.126207990173688e-01 6.710124336802422e-01
-4.489401373016593e-01 5.588092329264006e-01 6.972696711572753e-01
-4.862287979972932e-01 5.069595791878764e-01 7.117397987100050e-01
-5.308361434256805e-01 4.556816456500060e-01 7.145398705815185e-01
-5.831648455945067e-01 4.030887059870165e-01 7.052930298595388e-01
-5.831648455945069e-01 4.030887059870165e-01 7.052930298595386e-01
-6.111136259325876e-01 3.272393275884042e-01 7.207319603562854e-01
-6.377302986592461e-01 2.493278500429087e-01 7.287905661882363e-01
-6.629444212307836e-01 1.690406248880935e-01 7.293352874339925e-01
-6.863330122501528e-01 8.603261334495987e-02 7.221809923673346e-01
-7.071067811881095e-01 -1.051936315832336e-12 7.071067811849852e-01
8.858315352803766e-01 8.467026549646203e-19 4.640069946701352e-01
8.779921754087071e-01 5.541211865187221e-02 4.754568718901820e-01
8.693846871562678e-01 1.078097039362686e-01 4.822316180792923e-01
8.605300539916726e-01 1.570902208363880e-01 4.845726866989759e-01
8.518798825251476e-01 2.031954386407812e-01 4.827134548202704e-01
8.438172512956670e-01 2.461010457658151e-01 4.768718084441536e-01
8.438172512956670e-01 2.461010457658152e-01 4.768718084441536e-01
8.419528922470995e-01 2.697990664354695e-01 4.672513145912948e-01
8.363466347494048e-01 3.015032183274647e-01 4.578428943224157e-01
8.263182769906484e-01 3.409406353583502e-01 4.482829332828215e-01
8.110151807277051e-01 3.877003020715495e-01 4.381128306758854e-01
7.894333925859869e-01 4.411917636662684e-01 4.267841917681892e-01
-5.399887742399274e-01 5.380633866461942e-01 6.472247798452170e-01
-5.403920107564029e-01 5.129040740099516e-01 6.670126577319545e-01
-5.490990076025546e-01 4.802078823526925e-01 6.840253427879933e-01
-5.653422576105083e-01 4.382873537595331e-01 6.987791691903241e-01
-5.878534421442747e-01 3.855178038059601e-01 7.111992361552119e-01
-6.148826786445096e-01 3.204137233539601e-01 7.205930456154881e-01
-6.148826786445092e-01 3.204137233539601e-01 7.205930456154880e-01
-6.317380033095361e-01 2.671148160204569e-01 7.277065138067942e-01
-6.504411676082267e-01 2.090296343125023e-01 7.302279777299878e-01
-6.700842302078338e-01 1.454859350642718e-01 7.278880182591607e-01
-6.894695674921989e-01 7.593209156180353e-02 7.203235613064241e-01
-7.071067811881095e-01 -1.051936315832336e-12 7.071067811849852e-01
8.858315352803766e-01 1.301401747193981e-17 4.640069946701354e-01
8.820085391133403e-01 3.135667674957637e-02 4.701890000354898e-01
8.783337503339074e-01 6.061014015275629e-02 4.741900820715639e-01
8.749994341669041e-01 8.774471130033414e-02 4.761059292283796e-01
8.721738611912976e-01 1.127541487007727e-01 4.760244298409771e-01
8.700017044382408e-01 1.356392013711415e-01 4.740243045730408e-01
8.700017044382409e-01 1.356392013711415e-01 4.740243045730407e-01
8.714898727245677e-01 1.453451587154915e-01 4.683803866266024e-01
8.703315482778095e-01 1.666910940109245e-01 4.633973189928834e-01
8.658777650321908e-01 1.995458796341470e-01 4.587342781435595e-01
8.571160506044911e-01 2.436505047247272e-01 4.538573645359796e-01
8.426891801929495e-01 2.985503605210267e-01 4.480431093304523e-01
8.858315352803766e-01 -4.802108424741072e-17 4.640069946701354e-01
8.652071472756422e-01 1.026257966762153e-01 4.907998962507200e-01
8.423445525791833e-01 1.882399751610293e-01 5.049964024540676e-01
8.217528929328471e-01 2.570111499785903e-01 5.085936017521054e-01
8.068034549848713e-01 3.095656809794765e-01 5.032268615487332e-01
7.998117512248623e-01 3.466516765868282e-01 4.900344658512912e-01
7.998117512248621e-01 3.466516765868283e-01 4.900344658512913e-01
7.906713651136794e-01 3.890157237679363e-01 4.727637454908946e-01
7.791102527451418e-01 4.304661648765576e-01 4.557258989391209e-01
7.652934503130744e-01 4.708932963048566e-01 4.388455746650028e-01
7.493845049459826e-01 5.102001909603144e-01 4.220410274972367e-01
7.315450781306359e-01 5.483013211426416e-01 4.052251965217317e-01
        </DataArray>
        <DataArray type="Float64" Name="base_vector_2" NumberOfComponents="3" format="ascii">
-1.484947569328895e-01 6.321663375074615e-01 -7.604702682458037e-01
-2.670976952394374e-01 6.230973988281453e-01 -7.351247872105660e-01
-3.705811576234892e-01 5.936201037089491e-01 -7.143421995703537e-01
-4.574381908710597e-01 5.463164828813740e-01 -7.016328114225684e-01
-5.261466851074171e-01 4.837637720972406e-01 -6.993870734841513e-01
-5.749686414152231e-01 4.085232175291003e-01 -7.088863393582953e-01
-5.749686414152230e-01 4.085232175291000e-01 -7.088863393582955e-01
-6.353497880879986e-01 3.402722536186493e-01 -6.932138488185451e-01
-6.797518130468170e-01 2.628243878713961e-01 -6.847341190561425e-01
-7.071365088613728e-01 1.785755856309725e-01 -6.841554779813611e-01
-7.165424328368255e-01 9.006862350232803e-02 -6.917041166602084e-01
-7.071067811849852e-01 -4.356515148629114e-13 -7.071067811881097e-01
-4.680508111719463e-18 1.000000000000000e+00 7.110752789142061e-18
-4.906576453247751e-02 9.984633144729163e-01 -2.575966619740517e-02
-9.512812987952624e-02 9.941700195695325e-01 -5.076032993134844e-02
-1.382480906307425e-01 9.875804158722796e-01 -7.464842679179071e-02
-1.785151777058097e-01 9.791321703242171e-01 -9.712118391397198e-02
-2.160376517679386e-01 9.692377970135861e-01 -1.179229657820956e-01
-2.160376517679386e-01 9.692377970135861e-01 -1.179229657820957e-01
-2.367750661819320e-01 9.629150996316237e-01 -1.293525374160160e-01
-2.646324979743161e-01 9.534651031236588e-01 -1.444781580075830e-01
-2.993500957780773e-01 9.400846015152360e-01 -1.631884252990877e-01
-3.405250788377897e-01 9.217847835738369e-01 -1.853523224948959e-01
-3.875755505430164e-01 8.974122942177321e-01 -2.107993520107320e-01
-2.126919051139951e-01 6.567837508408947e-01 -7.234619949453772e-01
-3.176638646423844e-01 6.096990452976750e-01 -7.261933236153912e-01
-4.111338483136376e-01 5.573669493801581e-01 -7.213258920276432e-01
-4.921788614981524e-01 5.005789144740789e-01 -7.121662156254924e-01
-5.602309341243255e-01 4.402011417406761e-01 -7.016867215933267e-01
-6.149496410695833e-01 3.772409384728835e-01 -6.924783125040732e-01
-6.149496410695834e-01 3.772409384728832e-01 -6.924783125040732e-01
-6.586306352127034e-01 3.100988663838037e-01 -6.855978262996395e-01
-6.906125307591522e-01 2.374641031531348e-01 -6.831289278548496e-01
-7.099744749410928e-01 1.605478432101920e-01 -6.856826051262164e-01
-7.157772883074767e-01 8.081322523989243e-02 -6.936368618877762e-01
-7.071067811849852e-01 -4.356515148629114e-13 -7.071067811881097e-01
-1.285859292639569e-17 1.000000000000000e+00 -3.498805787527951e-18
-2.780520423932778e-02 9.995082175061573e-01 -1.449806038315177e-02
-5.365119185673972e-02 9.981612929148703e-01 -2.820607982094824e-02
-7.757104436666155e-02 9.961424554873949e-01 -4.102366940449041e-02
-9.960105971980363e-02 9.936220616115077e-01 -5.286612886895951e-02
-1.197785305983580e-01 9.907573230267051e-01 -6.366341552772189e-02
-1.197785305983580e-01 9.907573230267051e-01 -6.366341552772188e-02
-1.283713030854516e-01 9.893807482405836e-01 -6.816555988947740e-02
-1.472711155210581e-01 9.860091265755286e-01 -7.808470300222857e-02
-1.763641946135273e-01 9.798884815949017e-01 -9.335006425257526e-02
-2.153947728169280e-01 9.698630889152338e-01 -1.138888958720093e-01
-2.639053131130314e-01 9.543936897032222e-01 -1.395946659632176e-01
4.967894606654796e-17 1.000000000000000e+00 8.650531626194616e-18
-9.589065192172917e-02 9.946300957098450e-01 -3.893527426705153e-02
-1.758442538996333e-01 9.817346883025143e-01 -7.263470351041845e-02
-2.405430505998574e-01 9.655484704920420e-01 -9.927331936926914e-02
-2.909030023895294e-01 9.494859630618633e-01 -1.176938789795099e-01
-3.277645567687843e-01 9.361476737705068e-01 -1.272710816337754e-01
-3.277645567687844e-01 9.361476737705068e-01 -1.272710816337754e-01
-3.680784550868980e-01 9.190896119226277e-01 -1.406859486827167e-01
-4.065624298153985e-01 9.003176128813487e-01 -1.553550340292492e-01
-4.431643981534815e-01 8.799125602818844e-01 -1.713452726731667e-01
-4.778303817225458e-01 8.579429549401751e-01 -1.887114526768499e-01
-5.105028666518020e-01 8.344652720256327e-01 -2.074958624249639e-01
        </DataArray>
        <DataArray type="Float64" Name="base_vector_3" NumberOfComponents="3" format="ascii">
-9.086638850726430e-01 -3.906720620123499e-01 -1.473271323541931e-01
-8.684588365259124e-01 -4.862565045168238e-01 -9.661190959265187e-02
-8.130943110943537e-01 -5.790918870686966e-01 -5.941571843556126e-02
-7.445346583811389e-01 -6.667310444262941e-01 -3.373213404906350e-02
-6.643663556979893e-01 -7.472127211336484e-01 -1.704390778611597e-02
-5.738726550828750e-01 -8.189189678139005e-01 -6.473013420953855e-03
-5.738726550828748e-01 -8.189189678139005e-01 -6.473013420953855e-03
-4.720919221677706e-01 -8.815493269787995e-01 -3.357327579389668e-05
-3.622672202001644e-01 -9.320724029457192e-01 1.869982737572884e-03
-2.458915455934405e-01 -9.692966663277028e-01 1.149109077037913e-03
-1.245549607198159e-01 -9.922126951926348e-01 -1.710516080701829e-04
1.051936315832336e-12 -9.999999999999999e-01 -4.356515148629114e-13
-4.640069946701352e-01 -8.470717562653069e-18 8.858315352803766e-01
-4.761536418761592e-01 -7.118695590500913e-04 8.793618155058822e-01
-4.848926733245434e-01 -1.743538439346728e-03 8.745719269619213e-01
-4.902810333003337e-01 -2.754033970409360e-03 8.715600516790836e-01
-4.923748542295837e-01 -3.436095424888222e-03 8.703764680703558e-01
-4.912231462730764e-01 -3.516832839724260e-03 8.710266657527526e-01
-4.912231462730764e-01 -3.516832839724225e-03 8.710266657527526e-01
-4.848225399785841e-01 -1.724717939032810e-03 8.746108449343313e-01
-4.800978520668668e-01 -3.262875598969150e-04 8.772148801617590e-01
-4.770614481058620e-01 6.520394040692712e-04 8.788696999986707e-01
-4.757068922264264e-01 1.135141120744768e-03 8.796031287705331e-01
-4.760043185638725e-01 1.000929525147617e-03 8.794423726706765e-01
-8.143551296540353e-01 -5.283208273219918e-01 -2.402141257794095e-01
-7.791444948217990e-01 -6.043148889669172e-01 -1.665454027038449e-01
-7.276394977052222e-01 -6.773053029948893e-01 -1.086199241129031e-01
-6.619275640538292e-01 -7.465419920663665e-01 -6.728264283858842e-02
-5.835834396290845e-01 -8.109247670153097e-01 -4.279475706032465e-02
-4.937167512363174e-01 -8.689213544542165e-01 -3.492061457228868e-02
-4.937167512363170e-01 -8.689213544542165e-01 -3.492061457228823e-02
-4.087943022276501e-01 -9.124080052968832e-01 -1.997123772757670e-02
-3.161971218067697e-01 -9.486397691921094e-01 -1.009794376374784e-02
-2.166180263941424e-01 -9.762470142023634e-01 -4.289277570458827e-03
-1.108809679129623e-01 -9.938327525783079e-01 -1.367792860175410e-03
1.051936315832336e-12 -9.999999999999999e-01 -4.356515148629114e-13
-4.640069946701354e-01 -2.867124557049771e-18 8.858315352803766e-01
-4.704123803094052e-01 -2.862881185513987e-04 8.824466615556731e-01
-4.750277598590683e-01 -6.665111984336149e-04 8.799705581018593e-01
-4.778689394420433e-01 -1.036346643026008e-03 8.784305337943190e-01
-4.789492507117590e-01 -1.304081922799471e-03 8.778416227389673e-01
-4.782783058871207e-01 -1.390654650189321e-03 8.782072239496722e-01
-4.782783058871206e-01 -1.390654650189310e-03 8.782072239496722e-01
-4.733140715029081e-01 -7.210054586449730e-04 8.808934497817933e-01
-4.699300103265743e-01 -2.854596368070533e-04 8.827036331109449e-01
-4.681360559508101e-01 -7.455650577538331e-05 8.836563967743047e-01
-4.679285924575494e-01 -1.425032879942140e-04 8.837662655100100e-01
-4.692855541101255e-01 -6.060424361367250e-04 8.830462623306425e-01
-4.640069946701354e-01 1.538846475129522e-17 8.858315352803766e-01
-4.921601113226987e-01 -1.337604443760818e-02 8.704019222508830e-01
-5.094452405417651e-01 -2.761726878132941e-02 8.600597847559220e-01
-5.165861242470718e-01 -4.076051909827706e-02 8.552644949477488e-01
-5.142408270696059e-01 -5.143437671634661e-02 8.561021414916380e-01
-5.028633591034264e-01 -5.882302281938406e-02 8.623620434931077e-01
-5.028633591034266e-01 -5.882302281938407e-02 8.623620434931077e-01
-4.892412935251000e-01 -6.277779796410714e-02 8.698861447296794e-01
-4.771731391539140e-01 -6.424232897473720e-02 8.764580528684195e-01
-4.668310734271794e-01 -6.335132005985236e-02 8.820744634833850e-01
-4.583677454290940e-01 -6.024658672970153e-02 8.867183085612194e-01
-4.519166093463867e-01 -5.507604757442987e-02 8.903583588535824e-01
        </DataArray>
        <DataArray type="Float64" Name="displacement" NumberOfComponents="3" format="ascii">
2.231023217267822e-01 1.754132821460743e-01 1.393221039218173e-02
1.447948401278286e-01 1.614342738126710e-01 1.355200548130361e-03
8.631466595885995e-02 1.382994893308033e-01 -4.424722096789513e-03
4.419394007098998e-02 1.101286733809951e-01 -6.134854456612771e-03
1.496480331533112e-02 8.104157064377004e-02 -6.502493445374014e-03
-4.840603457003212e-03 5.515792579965206e-02 -8.254935977108135e-03
-4.840603457003212e-03 5.515792579965206e-02 -8.254935977108135e-03
-1.625871603184681e-02 3.250808077709300e-02 -9.969926917709482e-03
-1.940192324691298e-02 1.249247490482630e-02 -9.044979430353983e-03
-1.635201382885720e-02 -1.714001036125734e-03 -6.437042874986698e-03
-9.190776504334502e-03 -6.936456264741819e-03 -3.103066611553462e-03
0.000000000000000e+00 0.000000000000000e+00 0.000000000000000e+00
0.000000000000000e+00 0.000000000000000e+00 0.000000000000000e+00
-3.029148839190865e-03 6.888131026463962e-03 2.228781106583533e-04
-8.173296672632335e-03 2.624366685506802e-02 2.599697001319345e-03
-1.536056447315548e-02 5.742332218637730e-02 6.122205758793964e-03
-2.451907321359137e-02 9.978381172095729e-02 9.782153469897192e-03
-3.557694386677124e-02 1.526818501593732e-01 1.257128922143957e-02
-3.557694386677124e-02 1.526818501593732e-01 1.257128922143957e-02
-4.721822333874659e-02 2.131669001696928e-01 1.367613350575780e-02
-5.906471551017312e-02 2.801525193825888e-01 1.284409785846208e-02
-7.245117681579027e-02 3.557915649425350e-01 9.908267931273418e-03
-8.871236369033375e-02 4.422368939940044e-01 4.701729375915953e-03
-1.091830325685437e-01 5.416413636814696e-01 -2.942432155891517e-03
3.431094445677239e-01 3.178569295749155e-01 1.493914880748637e-02
2.334636695239420e-01 2.767544076306139e-01 4.198878767389225e-03
1.493727934961312e-01 2.339152804953247e-01 -2.748714240301986e-03
8.719374682715042e-02 1.903178893367276e-01 -6.613839794682441e-03
4.328345985985849e-02 1.469405753225029e-01 -8.106707474850872e-03
1.399886293711550e-02 1.047616796203311e-01 -7.937526859899791e-03
1.399886293711550e-02 1.047616796203311e-01 -7.937526859899791e-03
-2.720984766025447e-03 6.746191558009218e-02 -6.303820547127970e-03
-8.897304546205964e-03 3.817620770340102e-02 -3.635068730567959e-03
-8.113586768527525e-03 1.706421388479651e-02 -9.894173844022802e-04
-3.953321798091713e-03 4.285592018816620e-03 5.749875171812135e-04
0.000000000000000e+00 0.000000000000000e+00 0.000000000000000e+00
0.000000000000000e+00 0.000000000000000e+00 0.000000000000000e+00
-1.910758672045876e-03 4.454120380557092e-03 4.911078910865285e-04
-4.482065750230468e-03 1.564648406331720e-02 2.035774159729442e-03
-7.719554550023822e-03 3.323539342606213e-02 4.197059629273525e-03
-1.162885838689576e-02 5.687915084657391e-02 6.538025123070668e-03
-1.621561057631649e-02 8.623605870263434e-02 8.621731464469207e-03
-1.621561057631649e-02 8.623605870263434e-02 8.621731464469207e-03
-2.058112686530955e-02 1.190832883141827e-01 9.893660967527751e-03
-2.449725039181327e-02 1.554341939188615e-01 1.007829391867787e-02
-2.897540555766986e-02 1.983013522710073e-01 9.157188099830904e-03
-3.502701676472153e-02 2.506973401249561e-01 7.111901292912393e-03
-4.366350841480982e-02 3.156347342350448e-01 3.923991279823014e-03
0.000000000000000e+00 0.000000000000000e+00 0.000000000000000e+00
-6.083872411324409e-03 1.246582486189723e-02 1.882698767715851e-03
-1.733971314903937e-02 4.701065920435782e-02 8.469703472698598e-03
-3.282637193672477e-02 9.975572217826084e-02 1.753410459452454e-02
-5.160269849795984e-02 1.668222329344857e-01 2.684899261276286e-02
-7.272754255632474e-02 2.443314106239112e-01 3.418745800701117e-02
-7.272754255632474e-02 2.443314106239112e-01 3.418745800701117e-02
-9.536309639982199e-02 3.309322048731616e-01 3.801997364219645e-02
-1.198806157187402e-01 4.278492526654477e-01 3.816698837397681e-02
-1.471525453400877e-01 5.350673041865286e-01 3.442655666804129e-02
-1.780513300908733e-01 6.525711096221647e-01 2.659673299005405e-02
-2.134494147981050e-01 7.803454191581152e-01 1.447557180567927e-02
        </DataArray>
  </PointData>
  <CellData>
        <DataArray type="Float64" Name="axial_strain_GPs" NumberOfComponents="3" format="ascii">
5.126973333297480e-03 -1.134798525982816e-02 -1.771783052202958e-02
-1.771783052202958e-02 -1.613543416532681e-02 -2.178763590185173e-02
-9.607369765300522e-03 -1.071107022687268e-02 -9.683112030739904e-03
-9.683112030739904e-03 -3.112839744316864e-03 3.013165499152870e-03
4.537913800508830e-03 -6.585023620694130e-03 -1.566213658738913e-02
-1.566213658738957e-02 -1.542185436546473e-02 -1.481406646326588e-02
-6.267633744807877e-03 -4.950523407636798e-03 -5.473135413623487e-03
-5.473135413623487e-03 -1.943984290028844e-03 1.708079496972714e-03
-1.426991679608691e-02 -1.237589313201370e-02 -7.621266832538276e-03
-7.621266832538387e-03 -7.777265958752722e-05 1.869658078074821e-03
        </DataArray>
        <DataArray type="Float64" Name="cross_section_radius" format="ascii">
1.000000000000000e-01
1.000000000000000e-01
1.000000000000000e-01
1.000000000000000e-01
1.000000000000000e-01
1.000000000000000e-01
1.000000000000000e-01
1.000000000000000e-01
1.000000000000000e-01
1.000000000000000e-01
        </DataArray>
        <DataArray type="Float64" Name="curvature_2_GPs" NumberOfComponents="3" format="ascii">
2.974247229163133e-01 2.267375601520523e-01 1.697111178056153e-01
1.427446577305486e-01 1.212142075593561e-01 1.079724291969533e-01
-5.711345597733739e-02 -2.637743268643515e-02 4.352098588115571e-03
3.131758309924637e-02 1.514146924748589e-02 -1.003071977321987e-03
4.484751853316054e-01 3.203756144575168e-01 1.936125712238063e-01
2.511139681499255e-01 2.006972097768415e-01 1.557075797383538e-01
-3.004111994042281e-02 -1.371084724220491e-02 2.617308570649702e-03
2.348199600075873e-02 8.587505333108262e-03 -6.280497898295563e-03
-1.353640192093593e-01 -4.774316921920772e-02 3.859713173808765e-02
5.459209241865443e-02 4.602360705743747e-02 3.832410365352820e-02
        </DataArray>
        <DataArray type="Float64" Name="curvature_3_GPs" NumberOfComponents="3" format="ascii">
-2.596787149311043e-01 -1.096292029937525e-01 4.847101376271817e-02
-9.758131389509153e-02 -2.689669737958385e-03 9.375550737938407e-02
2.331140980890005e-01 2.098073389390868e-01 1.864973838635013e-01
1.056781267207196e-01 1.756858999136924e-01 2.456962886053411e-01
-1.352468591362920e-01 -1.141373450799436e-01 -7.888126230593359e-02
-5.408303912012534e-02 1.234770055690896e-02 8.232818800741878e-02
1.317397619448081e-01 1.147916601040021e-01 9.784188903602042e-02
4.449114339594676e-02 1.409789781584953e-01 2.374694705018062e-01
4.302592359070256e-01 2.994603659346646e-01 1.677803711201305e-01
1.889866022160397e-01 1.882472220454840e-01 1.873316986658247e-01
        </DataArray>
        <DataArray type="Float64" Name="element_owner" format="ascii">
2.000000000000000e+00
2.000000000000000e+00
2.000000000000000e+00
2.000000000000000e+00
2.000000000000000e+00
2.000000000000000e+00
2.000000000000000e+00
2.000000000000000e+00
2.000000000000000e+00
2.000000000000000e+00
        </DataArray>
        <DataArray type="Float64" Name="material_axial_force_GPs" NumberOfComponents="3" format="ascii">
1.610686175903814e-03 -3.565074712532142e-03 -5.566220620555713e-03
-5.566220620555713e-03 -5.069096143627247e-03 -6.844787688834663e-03
-3.018244227498882e-03 -3.364981953682756e-03 -3.042039361965943e-03
-3.042039361965943e-03 -9.779274472548191e-04 9.466138596188878e-04
1.425627665830228e-03 -2.068746183048794e-03 -4.920405324246160e-03
-4.920405324246300e-03 -4.844918437927567e-03 -4.653976237078703e-03
-1.969035212807991e-03 -1.555252796885607e-03 -1.719436200754168e-03
-1.719436200754168e-03 -6.107206764248587e-04 5.366089999436828e-04
-4.483026577392424e-03 -3.888001494514663e-03 -2.394291589214980e-03
-2.394291589215015e-03 -2.443300160103153e-05 5.873704082804669e-04
        </DataArray>
        <DataArray type="Float64" Name="material_bending_moment_2_GPs" NumberOfComponents="3" format="ascii">
2.335968311274674e-04 1.780792633166403e-04 1.332908002326582e-04
1.121113920163702e-04 9.520141599479541e-05 8.480134758884818e-05
-4.485680342988181e-05 -2.071678718706599e-05 3.418130238030598e-06
2.459677224819507e-05 1.189208213811436e-05 -7.878108887441354e-07
3.522315868887731e-04 2.516224191922627e-04 1.520629578498351e-04
1.972244493883968e-04 1.576272199577237e-04 1.222924471535648e-04
-2.359424042761054e-05 -1.076847424265071e-05 2.055629344432677e-06
1.844271653190214e-05 6.744610916789022e-06 -4.932691514542870e-06
-1.063146520771277e-04 -3.749739741953934e-05 3.031411637950340e-05
4.287652912163496e-05 3.614685645583723e-05 3.009968062333449e-05
        </DataArray>
        <DataArray type="Float64" Name="material_bending_moment_3_GPs" NumberOfComponents="3" format="ascii">
-2.039511857802989e-04 -8.610257468601930e-05 3.806904518725130e-05
-7.664018471511480e-05 -2.112461672338212e-06 7.363540330416418e-05
1.830873845011536e-04 1.647822986700648e-04 1.464747027648229e-04
8.299940663773597e-05 1.379833831270420e-04 1.929694138242043e-04
-1.062226347709171e-04 -8.964326120084853e-05 -6.195319854155262e-05
-4.247671959589880e-05 9.697861339577947e-06 6.466040765686655e-05
1.034681670778694e-04 9.015715901902739e-05 7.684483995222739e-05
3.494326231062910e-05 1.107246305233312e-04 1.865080859950831e-04
3.379248136661674e-04 2.351956214154134e-04 1.317743953318928e-04
1.484297302872017e-04 1.478490224591948e-04 1.471299720782630e-04
        </DataArray>
        <DataArray type="Float64" Name="material_shear_force_2_GPs" NumberOfComponents="3" format="ascii">
6.285851289556148e-04 -4.287652727769343e-04 1.762727456406682e-04
1.762727456406421e-04 -1.827246690290063e-04 -6.091724410029005e-03
2.915443205185916e-04 3.423815437838159e-05 1.200556331551432e-04
1.200556331551323e-04 -9.859194126772954e-05 1.251651631614598e-03
-7.581801635318038e-04 -5.626143885794241e-04 -2.849561010688842e-04
-2.849561010688842e-04 -1.791828939217579e-04 -3.290637133699376e-04
6.434509695658514e-04 2.838598313870370e-05 8.045782779728648e-05
8.045782779729519e-05 -1.668471838940536e-04 9.132761844367356e-04
8.838637425848052e-05 2.092831625242468e-04 -6.657183277282608e-05
-6.657183277283044e-05 2.808789089995932e-04 2.130948807443583e-03
        </DataArray>
        <DataArray type="Float64" Name="material_shear_force_3_GPs" NumberOfComponents="3" format="ascii">
1.662895369948918e-03 -1.472605071518528e-04 -8.484895765633720e-05
-8.484895765635465e-05 -3.014258650641153e-05 -9.954586136882080e-03
-9.975696840675901e-05 5.376489087466483e-05 6.381172515308900e-05
6.381172515308900e-05 -2.537989595760276e-05 -7.777758227604670e-07
2.950893725454003e-03 -2.773526742771923e-04 8.427386743648035e-05
8.427386743650378e-05 -8.480415705703374e-05 -1.000267780269771e-05
3.800743836898430e-04 2.812998493405028e-05 4.334226949116427e-05
4.334226949119043e-05 -2.204149914596466e-05 2.258384497323446e-05
2.677336118631330e-04 1.887715312369456e-04 2.384325161303269e-04
2.384325161303007e-04 2.357813630388110e-04 6.600357185516019e-05
        </DataArray>
        <DataArray type="Float64" Name="material_torque_GPs" NumberOfComponents="3" format="ascii">
-1.689896479036266e-05 -5.039387591637371e-05 -7.549971951018582e-05
-7.534750921267606e-05 -7.909221778701762e-05 -7.674447942101815e-05
1.096293171078714e-06 6.438022503582754e-07 1.242918970137859e-06
5.238874935814463e-07 5.881496821467066e-07 -5.039624171197397e-08
-1.518865551519133e-06 -5.276640255385159e-05 -1.006524710292530e-04
-1.118157726488510e-04 -1.120538001273222e-04 -1.090306173710857e-04
5.724479508571124e-07 4.375043584722962e-07 5.985951389665799e-07
4.254046691349116e-07 5.280113418949942e-07 1.031739884893404e-07
3.878014620882463e-05 3.625590031007369e-05 3.731267508836609e-05
3.068701081658099e-05 1.496549769264752e-05 -1.025322095376605e-06
        </DataArray>
        <DataArray type="Float64" Name="shear_strain_2_GPs" NumberOfComponents="3" format="ascii">
4.001697217093703e-03 -2.729604503543759e-03 1.122187152043708e-03
1.122187152043541e-03 -1.163261372031876e-03 -3.878112207238704e-02
1.856028789636070e-03 2.179668604665140e-04 7.642978985067314e-04
7.642978985066620e-04 -6.276557920713993e-04 7.968261768019971e-03
-4.826724831212326e-03 -3.581714439881589e-03 -1.814086881972266e-03
-1.814086881972266e-03 -1.140713731406340e-03 -2.094884663000007e-03