<?xml version="1.0" ?> 
<!-- 
# vtk DataFile Version 3.0
-->
<VTKFile type="UnstructuredGrid" version="0.1" compressor="vtkZLibDataCompressor" byte_order="LittleEndian">
  <UnstructuredGrid>
    <FieldData>
      <DataArray type="Float64" Name="TIME" NumberOfTuples="1" format="ascii">
1.000000010000000e+00 
      </DataArray>
    </FieldData>

    <Piece NumberOfPoints="432" NumberOfCells="0" >
      <Points>
        <DataArray type="Float64" NumberOfComponents="3" format="ascii">
9.961533271249772e-01 8.592418384678263e-02 1.528337982331200e-02
9.887948166351245e-01 1.468155374270068e-01 7.667799810771526e-02
9.699057734523876e-01 2.404816442810291e-01 1.723323091259246e-01
9.380670753119250e-01 3.436214899201149e-01 2.803645491270424e-01
9.009383449562893e-01 4.317257829641916e-01 3.760283814780545e-01
8.728438351829588e-01 4.862941241986100e-01 4.374338241997576e-01
8.645497179207690e-01 5.009905353633890e-01 4.543169038318230e-01
8.613358063736756e-01 5.065360022142251e-01 4.607295218781859e-01
8.562595335071101e-01 5.151341387639032e-01 4.707195401452113e-01
8.504256031905375e-01 5.247830668030913e-01 4.820013477889918e-01
8.451705116306317e-01 5.332719929190378e-01 4.919911981986658e-01
8.417533079841827e-01 5.386933026253933e-01 4.984036254144578e-01
8.369844012625144e-01 5.461338450598406e-01 5.072470518605612e-01
8.208293326319031e-01 5.703233495071933e-01 5.363568825278568e-01
7.942826731317092e-01 6.070389578825850e-01 5.817045503305586e-01
7.623226018629761e-01 6.469891358987735e-01 6.329131400689270e-01
7.323077742787821e-01 6.809298918793747e-01 6.782544153420192e-01
7.122098786565071e-01 7.019647732937389e-01 7.073569785881059e-01
7.008269703339650e-01 7.133286624821787e-01 7.234425934339291e-01
6.750380656917666e-01 7.377237166736984e-01 7.589561375426007e-01
6.331395642194958e-01 7.737907594582356e-01 8.142863031150043e-01
5.834721328776936e-01 8.116130623034302e-01 8.767770828577718e-01
5.375825449257529e-01 8.424573708019101e-01 9.321159789766326e-01
5.072563274668254e-01 8.609148991254212e-01 9.676394485080029e-01
4.989181105624472e-01 8.657388507079918e-01 9.772772463162399e-01
4.961485477197376e-01 8.673179129656859e-01 9.804668126475878e-01
4.918240125484837e-01 8.697606269083593e-01 9.854357811279071e-01
4.869258747753885e-01 8.724938773765353e-01 9.910473410530819e-01
4.825760223300797e-01 8.748916482902315e-01 9.960163415429137e-01
4.797776772515959e-01 8.764196165457182e-01 9.992059442646466e-01
4.641820757027362e-01 8.847293964097783e-01 1.016883977387486e+00
4.030747554866604e-01 9.140811066112818e-01 1.084705534588477e+00
3.043774023420248e-01 9.515951681557092e-01 1.190363718097799e+00
1.889884020168897e-01 9.814371024916003e-01 1.309679306070888e+00
8.453087395143127e-02 9.962767781174711e-01 1.415320141478604e+00
1.687503226683158e-02 9.998508504843151e-01 1.483121976289675e+00
1.135060971593723e-01 2.999999999999999e-01 2.507074622321568e+00
1.677581227067583e-01 2.999999999999999e-01 2.535492349989220e+00
2.522761627833781e-01 3.000000000000000e-01 2.579763704315047e+00
3.477238372166552e-01 2.999999999999999e-01 2.629760105208663e+00
4.322418772932615e-01 3.000000000000000e-01 2.674031459534515e+00
4.864939028406323e-01 3.000000000000000e-01 2.702449187202197e+00
5.168826214492115e-01 3.000000000000000e-01 2.718367087425746e+00
5.846976533834305e-01 3.000000000000000e-01 2.753889247010356e+00
6.903452034791921e-01 2.999999999999999e-01 2.809228439917691e+00
8.096547965207874e-01 2.999999999999999e-01 2.871723941034747e+00
9.153023466165575e-01 3.000000000000000e-01 2.927063133942068e+00
9.831173785507854e-01 3.000000000000000e-01 2.962585293526660e+00
1.057768500458407e+00 3.000000000000000e-01 3.001688262144921e+00
1.070715006554950e+00 2.999999999999999e-01 3.008469765338345e+00
1.090884084300523e+00 3.000000000000000e-01 3.019034520347923e+00
1.113661370244847e+00 3.000000000000000e-01 3.030965479652083e+00
1.133830447990420e+00 3.000000000000000e-01 3.041530234661658e+00
1.146776954086965e+00 2.999999999999999e-01 3.048311737855079e+00
1.001841740521729e+00 3.000000000000000e-01 2.972393292654295e+00
1.009239744005451e+00 3.000000000000000e-01 2.976268437336243e+00
1.020764931288608e+00 3.000000000000000e-01 2.982305440198846e+00
1.033780523256763e+00 2.999999999999999e-01 2.989123131229781e+00
1.045305710539920e+00 3.000000000000000e-01 2.995160134092385e+00
1.052703714023642e+00 3.000000000000000e-01 2.999035278774333e+00
1.161817835014451e+00 3.000000000000000e-01 3.056190294531372e+00
1.209288357368413e+00 3.000000000000000e-01 3.081055806240567e+00
1.283241642435455e+00 3.000000000000000e-01 3.119793241275662e+00
1.366758357564573e+00 3.000000000000000e-01 3.163540092057572e+00
1.440711642631604e+00 3.000000000000000e-01 3.202277527092688e+00
1.488182164985553e+00 3.000000000000000e-01 3.227143038801907e+00
1.516882621449212e+00 3.000000000000000e-01 3.242176611235258e+00
1.584697653383433e+00 3.000000000000000e-01 3.277698770819866e+00
1.690345203479196e+00 3.000000000000000e-01 3.333037963727203e+00
1.809654796520792e+00 3.000000000000000e-01 3.395533464844262e+00
1.915302346616560e+00 3.000000000000000e-01 3.450872657751589e+00
1.983117378550786e+00 3.000000000000000e-01 3.486394817336187e+00
9.961533271253296e-01 8.592418384217376e-02 5.015283379823330e+00
9.887948166356073e-01 1.468155374228856e-01 5.076677998107750e+00
9.699057734529003e-01 2.404816442778350e-01 5.172332309125818e+00
9.380670753122621e-01 3.436214899181053e-01 5.280364549126623e+00
9.009383449563296e-01 4.317257829632458e-01 5.376028381477314e+00
8.728438351827587e-01 4.862941241983075e-01 5.437433824198830e+00
8.645497179204790e-01 5.009905353632850e-01 5.454316903830886e+00
8.613358063732846e-01 5.065360022143093e-01 5.460729521877379e+00
8.562595335065577e-01 5.151341387642768e-01 5.470719540144607e+00
8.504256031897974e-01 5.247830668037863e-01 5.482001347788620e+00
8.451705116297210e-01 5.332719929200129e-01 5.491991198198501e+00
8.417533079831601e-01 5.386933026265457e-01 5.498403625414426e+00
8.369844012614825e-01 5.461338450610063e-01 5.507247051860443e+00
8.208293326309561e-01 5.703233495082327e-01 5.536356882527267e+00
7.942826731309313e-01 6.070389578834086e-01 5.581704550329273e+00
7.623226018624463e-01 6.469891358993184e-01 5.632913140066917e+00
7.323077742785252e-01 6.809298918796344e-01 5.678254415339432e+00
7.122098786564531e-01 7.019647732937931e-01 5.707356978585183e+00
7.008269703339560e-01 7.133286624821875e-01 5.723442593430942e+00
6.750380656917322e-01 7.377237166737389e-01 5.758956137539680e+00
6.331395642194487e-01 7.737907594583108e-01 5.814286303112216e+00
5.834721328776663e-01 8.116130623035268e-01 5.876777082855174e+00
5.375825449257670e-01 8.424573708020124e-01 5.932115978974230e+00
5.072563274668751e-01 8.609148991255217e-01 5.967639448505737e+00
4.989181105624448e-01 8.657388507081271e-01 5.977277246314084e+00
4.961485477194867e-01 8.673179129659634e-01 5.980466812645735e+00
4.918240125478441e-01 8.697606269088557e-01 5.985435781126525e+00
4.869258747743074e-01 8.724938773772738e-01 5.991047341052233e+00
4.825760223286057e-01 8.748916482911806e-01 5.996016341542536e+00
4.797776772498685e-01 8.764196165468005e-01 5.999205944264572e+00
4.641820757010026e-01 8.847293964108310e-01 6.016883977387496e+00
4.030747554851750e-01 9.140811066120947e-01 6.084705534588534e+00
3.043774023409638e-01 9.515951681561915e-01 6.190363718097931e+00
1.889884020163067e-01 9.814371024917954e-01 6.309679306071064e+00
8.453087395121368e-02 9.962767781175123e-01 6.415320141478731e+00
1.687503226679496e-02 9.998508504843168e-01 6.483121976289708e+00
1.135060971593723e-01 2.999999999999999e-01 7.507074622321567e+00
1.677581227067584e-01 2.999999999999999e-01 7.535492349989219e+00
2.522761627833782e-01 3.000000000000000e-01 7.579763704315047e+00
3.477238372166552e-01 3.000000000000000e-01 7.629760105208663e+00
4.322418772932615e-01 3.000000000000000e-01 7.674031459534515e+00
4.864939028406323e-01 3.000000000000000e-01 7.702449187202197e+00
5.168826214492115e-01 3.000000000000000e-01 7.718367087425746e+00
5.846976533834306e-01 3.000000000000000e-01 7.753889247010356e+00
6.903452034791924e-01 3.000000000000000e-01 7.809228439917693e+00
8.096547965207879e-01 3.000000000000000e-01 7.871723941034748e+00
9.153023466165575e-01 3.000000000000000e-01 7.927063133942069e+00
9.831173785507861e-01 3.000000000000000e-01 7.962585293526661e+00
1.057768500458404e+00 3.000000000000000e-01 8.001688262144921e+00
1.070715006554948e+00 3.000000000000000e-01 8.008469765338344e+00
1.090884084300521e+00 3.000000000000000e-01 8.019034520347923e+00
1.113661370244846e+00 3.000000000000000e-01 8.030965479652084e+00
1.133830447990420e+00 3.000000000000000e-01 8.041530234661657e+00
1.146776954086965e+00 3.000000000000000e-01 8.048311737855082e+00
1.001841740521729e+00 2.999999999999999e-01 7.972393292654295e+00
1.009239744005451e+00 3.000000000000000e-01 7.976268437336243e+00
1.020764931288607e+00 3.000000000000000e-01 7.982305440198846e+00
1.033780523256761e+00 3.000000000000000e-01 7.989123131229781e+00
1.045305710539918e+00 2.999999999999999e-01 7.995160134092385e+00
1.052703714023640e+00 3.000000000000000e-01 7.999035278774334e+00
1.161817835014451e+00 3.000000000000000e-01 8.056190294531373e+00
1.209288357368413e+00 3.000000000000000e-01 8.081055806240567e+00
1.283241642435455e+00 3.000000000000000e-01 8.119793241275664e+00
1.366758357564573e+00 3.000000000000000e-01 8.163540092057572e+00
1.440711642631603e+00 3.000000000000000e-01 8.202277527092688e+00
1.488182164985553e+00 3.000000000000000e-01 8.227143038801907e+00
1.516882621449212e+00 3.000000000000000e-01 8.242176611235257e+00
1.584697653383433e+00 3.000000000000000e-01 8.277698770819866e+00
1.690345203479196e+00 2.999999999999999e-01 8.333037963727202e+00
1.809654796520792e+00 3.000000000000000e-01 8.395533464844263e+00
1.915302346616560e+00 3.000000000000000e-01 8.450872657751589e+00
1.983117378550787e+00 3.000000000000000e-01 8.486394817336187e+00
[...]
  <PointData>
        <DataArray type="Float64" Name="displacement" NumberOfComponents="3" format="ascii">
1.971297109114307e-01 1.975445494561741e-01 -1.432255361592187e-03
1.624728074317382e-01 1.835480060192327e-01 -2.854197992134030e-03
1.158343050426093e-01 1.617218748350396e-01 -4.950819425204755e-03
7.312474582083939e-02 1.373181404176989e-01 -7.056638037873209e-03
4.331699546324663e-02 1.162016558187516e-01 -8.601144092282742e-03
2.779432705886276e-02 1.030118823084918e-01 -9.395407970015313e-03
2.398936510831673e-02 9.944623672595787e-02 -9.583293680566096e-03
2.259470981453915e-02 9.809938418061470e-02 -9.651019617398393e-03
2.047672886116136e-02 9.600961481961112e-02 -9.752454897156093e-03
1.816407978837731e-02 9.366231087343113e-02 -9.860941108624399e-03
1.618548089474403e-02 9.159536231971188e-02 -9.951532415519160e-03
1.494928370737947e-02 9.027445387302602e-02 -1.000693025640420e-02
1.328738826473563e-02 8.846044871937486e-02 -1.007974796440675e-02
8.161899773513337e-03 8.255442337063057e-02 -1.028936686336801e-02
1.192653434674007e-03 7.356623651461403e-02 -1.051973898178149e-02
-5.276515097496715e-03 6.375661651036602e-02 -1.062962358110764e-02
-9.850193875456159e-03 5.540155241992395e-02 -1.058445209059666e-02
-1.225225368311345e-02 5.021530000855834e-02 -1.048081605140772e-02
-1.341596510594467e-02 4.741165570109152e-02 -1.040047689079826e-02
-1.570197956449149e-02 4.139962255968965e-02 -1.022076402329597e-02
-1.853831466310984e-02 3.255574708472553e-02 -9.938095131348024e-03
-2.073567834506496e-02 2.340234948284459e-02 -9.597283790164446e-03
-2.184687883219072e-02 1.610515399634371e-02 -9.258746676318430e-03
-2.217165405846805e-02 1.185148188539820e-02 -9.015519374699021e-03
-2.220955096843003e-02 1.075817028886350e-02 -8.945352758059966e-03
-2.221747065962421e-02 1.040217698332013e-02 -8.921708039215659e-03
-2.222526469313063e-02 9.853403278109685e-03 -8.884441428369083e-03
-2.222745237151674e-02 9.242238420388849e-03 -8.841711577074363e-03
-2.222357324174495e-02 8.708700628615285e-03 -8.803291640733235e-03
-2.221822216227942e-02 8.370028447448497e-03 -8.778335750463939e-03
-2.214847929330166e-02 6.547510342487795e-03 -8.635702071082108e-03
-2.127635241478776e-02 4.442337653394191e-04 -8.012579586428314e-03
-1.818054652563045e-02 -6.039507879484374e-03 -6.747152092387632e-03
-1.253023440580547e-02 -8.449113086607452e-03 -4.763788002134506e-03
-6.009402623157883e-03 -5.749654401724591e-03 -2.394006665156656e-03
-1.243495451151367e-03 -1.412903490914941e-03 -5.153867435796489e-04
-6.993191866447312e-05 1.710642221997016e-05 -6.369005280948414e-05
-3.996687940815424e-04 4.393714147143402e-04 -2.713748878484523e-04
-1.072451939903296e-03 2.241271944557699e-03 -4.565622070979991e-04
-2.072665878836977e-03 5.987870504364889e-03 -4.974388595226920e-04
-3.178667853001804e-03 1.085724582272934e-02 -4.190201501264035e-04
-4.000914563097480e-03 1.476680500036559e-02 -3.270214231974045e-04
-4.500659704621657e-03 1.722843422685277e-02 -2.649735831297129e-04
-5.719181125165340e-03 2.343444326571537e-02 -1.079576059588305e-04
-7.908633293979284e-03 3.509729514533266e-02 1.557786646122494e-04
-1.082212272800420e-02 5.126020217482635e-02 4.144818762918945e-04
-1.380690803485229e-02 6.829210611409625e-02 5.417620430088199e-04
-1.592961313048136e-02 8.060198407387609e-02 5.436463205543696e-04
-1.845811269395470e-02 9.542150336657063e-02 4.510093537311022e-04
-1.891740168910294e-02 9.812847949118092e-02 4.233380424731870e-04
-1.964528865408655e-02 1.024268755483340e-01 3.727794078098867e-04
-2.048552258672554e-02 1.074006259563198e-01 3.043042668502416e-04
-2.124577539777950e-02 1.119111414537770e-01 2.331275127422927e-04
-2.174185987930732e-02 1.148592680170140e-01 1.820162539671877e-04
-1.654476963345408e-02 8.419334919946908e-02 5.305107326685210e-04
-1.679131726738592e-02 8.563541943146397e-02 5.235370874951961e-04
-1.717937235506373e-02 8.790815482984948e-02 5.105897891666267e-04
-1.762343392261645e-02 9.051320721651102e-02 4.928300018880449e-04
-1.802182254988938e-02 9.285406338289193e-02 4.742378739610587e-04
-1.828011798780560e-02 9.437357749772057e-02 4.608468389819542e-04
-2.232297881947098e-02 1.183293320358652e-01 1.164261417523349e-04
-2.414833459206522e-02 1.295027721994654e-01 -1.445736890648419e-04
-2.697793405824522e-02 1.475901983217793e-01 -7.134084691649001e-04
-3.018486091355577e-02 1.690465609296691e-01 -1.589721211118000e-03
-3.306670334266459e-02 1.889911378290555e-01 -2.569142965087146e-03
-3.495145213179462e-02 2.022759013293794e-01 -3.296923345113001e-03
-3.610809910050494e-02 2.104947949082752e-01 -3.774070489792170e-03
-3.890359668319765e-02 2.304862864840728e-01 -5.011393284849230e-03
-4.347769262081158e-02 2.632761584335651e-01 -7.241625542229624e-03
-4.905751334018404e-02 3.028131078986262e-01 -1.019277216447811e-02
-5.445856899076129e-02 3.401391784184417e-01 -1.317824557225533e-02
-5.819420528597274e-02 3.652876997948217e-01 -1.527417300263645e-02
2.779396998916197e-01 2.938357294574466e-01 8.609754128172220e-03
2.384898094091008e-01 2.781401541473800e-01 4.990345608441693e-03
1.842460343330957e-01 2.527010487871373e-01 3.582040276510767e-04
1.328513586061203e-01 2.229766773641080e-01 -3.522856110450334e-03
9.537401064108875e-02 1.962248637557351e-01 -5.887917260173126e-03
7.498522670409213e-02 1.790369208938233e-01 -6.929969175672568e-03
6.985432744640774e-02 1.743266599472265e-01 -7.156120928796916e-03
6.795763094937834e-02 1.725403066284281e-01 -7.235466326047657e-03
6.505937123316263e-02 1.697608082705261e-01 -7.352004111866428e-03
6.186835616539399e-02 1.666273982369185e-01 -7.473394976058145e-03
5.911458706215122e-02 1.638581979173095e-01 -7.571979323636846e-03
5.738215638934741e-02 1.620835520424295e-01 -7.630914147009449e-03
5.503768722751468e-02 1.596400911488608e-01 -7.706689319132209e-03
4.768088994427544e-02 1.516332293485452e-01 -7.912099436914843e-03
3.728820661328558e-02 1.392925135729381e-01 -8.103529694575506e-03
2.704136061798268e-02 1.255987166093711e-01 -8.144616180301156e-03
1.921225025824036e-02 1.137359649554519e-01 -8.039154252438507e-03
1.476988055213213e-02 1.062724821939813e-01 -7.907039055894849e-03
1.250342535179905e-02 1.022071977583622e-01 -7.812856173008420e-03
7.981934655990619e-03 9.347437095700561e-02 -7.537961210757338e-03
2.188314004220371e-03 8.056377927644098e-02 -6.945288268675576e-03
-2.685782121937152e-03 6.702668969348757e-02 -6.083862172423515e-03
-5.686509655201566e-03 5.598986592424260e-02 -5.199655467588826e-03
-7.032867512645868e-03 4.938725384083698e-02 -4.593326975901313e-03
-7.326247469886304e-03 4.766195274797658e-02 -4.425487871341893e-03
-7.416866091410845e-03 4.709722922462456e-02 -4.369714165088467e-03
-7.551728712785200e-03 4.622366970397518e-02 -4.282630037264035e-03
-7.694907315130839e-03 4.524625937068105e-02 -4.184033365342898e-03
-7.813728926888086e-03 4.438886232112726e-02 -4.096539838359448e-03
-7.886111141133634e-03 4.384251328994060e-02 -4.040300701936062e-03
-8.233516895723991e-03 4.087156134990733e-02 -3.727920203600021e-03
-8.795189436129891e-03 3.038352610124839e-02 -2.540931675364178e-03
-7.736530181881585e-03 1.700253950598263e-02 -8.789309062597894e-04
-4.839137121495335e-03 6.408049303676444e-03 3.850370589750796e-04
-1.896643179759738e-03 1.210927721329913e-03 6.227128574840535e-04
-3.166564713179901e-04 2.681404957793898e-05 1.904410722177730e-04
-2.080740418334420e-04 9.726766991402513e-05 -5.311653707629205e-05
-1.287859521330481e-03 1.498087931110725e-03 2.584644526848479e-06
-3.720238483970351e-03 6.792814536315472e-03 8.781799265804580e-04
-7.502283638164187e-03 1.708188810249928e-02 2.865403880114137e-03
-1.170423346153943e-02 2.976023701524233e-02 5.352277193997779e-03
-1.479577603711163e-02 3.955521367984904e-02 7.239778438658639e-03
-1.665531068860460e-02 4.558090369351953e-02 8.379558281248478e-03
-2.111996639932179e-02 6.036089813375506e-02 1.109713070710594e-02
-2.888294482759779e-02 8.682390720757988e-02 1.566406593917691e-02
-3.870834347979546e-02 1.212578580960855e-01 2.100329903388154e-02
-4.822173963771337e-02 1.552910313934810e-01 2.558566373394910e-02
-5.467637798593861e-02 1.786772545715102e-01 2.832077732892468e-02
-6.205458345703052e-02 2.056504523776808e-01 3.104219201750524e-02
-6.336047682269474e-02 2.104485425347228e-01 3.147642433678399e-02
-6.540925929998220e-02 2.179897318673565e-01 3.212787544497786e-02
-6.774315112358908e-02 2.265999207997920e-01 3.282478038247660e-02
-6.982678388739338e-02 2.343038385329606e-01 3.340540333510944e-02
-7.117229720428786e-02 2.392869283539173e-01 3.375911384669195e-02
-5.650157695294111e-02 1.853273424103085e-01 2.903540645719804e-02
-5.722755672062607e-02 1.879766826492948e-01 2.931221139134088e-02
-5.836388020604166e-02 1.921282251222823e-01 2.973686143952303e-02
-5.965480280660751e-02 1.968514356948550e-01 3.020639387675228e-02
-6.080451828169464e-02 2.010639818973189e-01 3.061287939029622e-02
-6.154572288770033e-02 2.037826749315985e-01 3.086903376318073e-02
-7.274187835816970e-02 2.451163108706053e-01 3.415153120296921e-02
-7.772630809042425e-02 2.638522862132143e-01 3.526963265497152e-02
-8.560317218436997e-02 2.940669890981918e-01 3.664357829178755e-02
-9.470579380365418e-02 3.296945040227322e-01 3.764719604803979e-02
-1.029930087004722e-01 3.625778649747093e-01 3.804148160490683e-02
-1.084439504882069e-01 3.843477351007424e-01 3.804584516637988e-02
-1.117946942255499e-01 3.977610966866132e-01 3.795303274135442e-02
-1.198922858333669e-01 4.302084454554224e-01 3.744475371174971e-02
-1.330718822253154e-01 4.828705023130488e-01 3.583122302373276e-02
-1.489094710399497e-01 5.454443317850566e-01 3.277890708354469e-02
-1.639047850975457e-01 6.036063426613874e-01 2.896014417430237e-02
-1.740665963302370e-01 6.423063777569925e-01 2.594482139302379e-02
2.821510832556239e-01 3.014929515175528e-01 8.029448205082446e-03
2.422399902102034e-01 2.853591719680333e-01 4.366511579259935e-03
1.873506971563623e-01 2.592893582786994e-01 -3.066122739951993e-04
1.353207871782015e-01 2.289080185726819e-01 -4.199933874046380e-03
9.735084703802599e-02 2.016026380808967e-01 -6.550999841941518e-03
7.667471600532982e-02 1.840641901241041e-01 -7.574078108865123e-03
7.146824687433073e-02 1.792573998881697e-01 -7.793851760142800e-03
6.954320672666114e-02 1.774343190717622e-01 -7.870654757132556e-03
6.660117357843898e-02 1.745975152360667e-01 -7.983105292423076e-03
6.336126970098088e-02 1.713992358163238e-01 -8.099701090561240e-03
6.056467789896025e-02 1.685724347948464e-01 -8.193886719755739e-03
5.880498442758142e-02 1.667607257934531e-01 -8.249925047037365e-03
5.642319767790382e-02 1.642660238081531e-01 -8.321615097303336e-03
4.894575104738996e-02 1.560892766063704e-01 -8.512881063186484e-03
3.837117410513657e-02 1.434791914756026e-01 -8.680400648705344e-03
2.792639430625876e-02 1.294720786577992e-01 -8.692299026998640e-03
1.992724210794139e-02 1.173216035974026e-01 -8.559617997525137e-03
1.537769687939106e-02 1.096673694189826e-01 -8.409597422783577e-03
1.305291843287337e-02 1.054948127266822e-01 -8.305353540141169e-03
8.412449789062415e-03 9.652874164003467e-02 -8.006482100023860e-03
2.460520174010106e-03 8.326691286762422e-02 -7.372030079269010e-03
-2.555735779739887e-03 6.935214054547412e-02 -6.458479572383879e-03
-5.652903401206277e-03 5.799889605496256e-02 -5.525280997130011e-03
-7.047902860575772e-03 5.120262107977036e-02 -4.886776081873379e-03
-7.352806691975244e-03 4.942609940866305e-02 -4.710168827399386e-03
-7.447087044492151e-03 4.884455111574448e-02 -4.651492443205285e-03
-7.587505491961966e-03 4.794490654695238e-02 -4.559886361123588e-03
-7.736742758355342e-03 4.693822317392493e-02 -4.456184177366040e-03
-7.860740488597528e-03 4.605507003305387e-02 -4.364171951824147e-03
-7.936352758847520e-03 4.549227021067159e-02 -4.305033838752692e-03
-8.300374759202700e-03 4.243131483004325e-02 -3.976621419926829e-03
-8.906941703715532e-03 3.161697449395007e-02 -2.729383209457481e-03
-7.867894897840899e-03 1.779141693287523e-02 -9.822679338267193e-04
-4.939724955158681e-03 6.796694033302186e-03 3.542912654417307e-04
-1.943894152415138e-03 1.343767526652995e-03 6.246919759345104e-04
-3.258685821349444e-04 4.794962461474039e-05 1.931101565233462e-04
-2.145313792775022e-04 9.000877762815884e-05 -5.752993286201047e-05
-1.323398816894555e-03 1.496574849758348e-03 -1.779674989954572e-05
-3.810967447833713e-03 6.903799529309196e-03 8.382287753061490e-04
-7.669483435278068e-03 1.745396397282717e-02 2.810428144865540e-03
-1.195134114842583e-02 3.046459685978403e-02 5.289567244727067e-03
-1.510006687803778e-02 4.051518547715954e-02 7.174555864468246e-03
-1.699360874455208e-02 4.669660816935095e-02 8.313690749975677e-03
-2.153918887683448e-02 6.185219542432197e-02 1.103162247058265e-02
-2.944178391127716e-02 8.896120371947935e-02 1.560342063289788e-02
-3.944404706723037e-02 1.241794551544529e-01 2.095308892198666e-02
-4.913040415118197e-02 1.589212261378571e-01 2.554771242427556e-02
-5.570387479660144e-02 1.827542079190682e-01 2.829159339658105e-02
-6.321973442461382e-02 2.102003384004439e-01 3.102301522210738e-02
-6.455021591124455e-02 2.150776651767013e-01 3.145899052491252e-02
-6.663771897425752e-02 2.227403417186020e-01 3.211314894503126e-02
-6.901594234680331e-02 2.314846275273204e-01 3.281309006032984e-02
-7.113936038803748e-02 2.393043019106271e-01 3.339637326174127e-02
-7.251067223297492e-02 2.443601134983863e-01 3.375177325257539e-02
-5.756293452208894e-02 1.895251728233586e-01 2.900871318660059e-02
-5.830241642965084e-02 1.922218967659527e-01 2.928650738016181e-02
-5.945991357172442e-02 1.964467982769744e-01 2.971270301996576e-02
-6.077495063744276e-02 2.012521375979538e-01 3.018398566769598e-02
-6.194619789218636e-02 2.055367286278755e-01 3.059202341620626e-02
-6.270131177434113e-02 2.083013112902715e-01 3.084917460108194e-02
-7.411040640900901e-02 2.502728720096035e-01 3.414587639671396e-02
-7.919037275738705e-02 2.692714108140429e-01 3.526390393862222e-02
-8.721800925509693e-02 2.998942417092991e-01 3.662224419138127e-02
-9.649565124451365e-02 3.359823553169739e-01 3.758778833021914e-02
-1.049439636008700e-01 3.692743310884544e-01 3.793248774612579e-02
-1.105021801637809e-01 3.913073181110144e-01 3.789814598107455e-02
-1.139194810281654e-01 4.048801983655294e-01 3.777959691998767e-02
-1.221800937292967e-01 4.377061428353669e-01 3.720429529425573e-02
-1.356324023363202e-01 4.909641159566370e-01 3.547203642026098e-02
-1.518109982418632e-01 5.542228790242985e-01 3.227119311261539e-02
-1.671430917268928e-01 6.130049843365371e-01 2.831463854281679e-02
-1.775407596041312e-01 6.521111023679012e-01 2.521062063389223e-02
4.048606406557176e-02 1.022849297722294e-01 -5.274394472499111e-03
3.577916323131791e-02 1.000422928399468e-01 -6.189684460323974e-03
2.910634541235257e-02 9.649244036288857e-02 -7.544742832445550e-03
2.242290973960570e-02 9.236797769756722e-02 -8.950059627100160e-03
1.714523068702567e-02 8.858009084650187e-02 -1.006258679528571e-02
1.402440949250905e-02 8.606684178353552e-02 -1.070215237932537e-02
1.155582638754704e-03 7.300302260277980e-02 -1.277490753510158e-02
7.855448661163722e-04 7.255864272581714e-02 -1.281047582255646e-02
2.109356816851760e-04 7.186141611288288e-02 -1.286197611169726e-02
-4.356229037278947e-04 7.106668650832493e-02 -1.291433940242825e-02
-1.006430392730184e-03 7.035635247963234e-02 -1.295550426258174e-02
-1.372146163958310e-03 6.989707128549261e-02 -1.297932259806878e-02
1.282835229115120e-02 8.504260991781099e-02 -1.093999500723442e-02
1.106724565522177e-02 8.346848730378820e-02 -1.127984033887230e-02
8.430127383688091e-03 8.095620824198224e-02 -1.175829302440157e-02
5.582626279957426e-03 7.802379992731423e-02 -1.221925288498937e-02
3.151582023744215e-03 7.533544643410239e-02 -1.255245799202243e-02
1.624753015140201e-03 7.356115156663823e-02 -1.272717693443326e-02
1.395766605509541e-01 1.314874286558777e-01 7.089630701708316e-03
1.205471960641509e-01 1.270635358444091e-01 5.480580834056781e-03
9.477197827283335e-02 1.205583481858842e-01 2.833644807468616e-03
7.074122776861103e-02 1.136056165269509e-01 -2.513230323675231e-04
5.336770192208828e-02 1.076250012681119e-01 -2.958174956942727e-03
4.388979807861226e-02 1.037974746553018e-01 -4.635340906075314e-03
-1.418991175951417e-02 -4.219201563194774e-03 -4.588063241076412e-03
-1.286883566292682e-02 -6.429699480396067e-03 -3.777815127016027e-03
-1.035692208064989e-02 -8.291459190924777e-03 -2.588722509557329e-03
-6.879567197014103e-03 -7.742316648625569e-03 -1.401473975697343e-03
-3.257216682918070e-03 -4.573245023573036e-03 -5.364112522912023e-04
-6.737275194684811e-04 -1.064384161150289e-03 -9.454027030741941e-05
-1.942733137394348e-03 6.916544498240229e-02 -1.301252932228003e-02
-3.789782207790138e-03 6.656304258643531e-02 -1.308601736859671e-02
-6.416333265017338e-03 6.214875587229907e-02 -1.308666627889288e-02
-9.021053363861498e-03 5.671988783568960e-02 -1.293277299507167e-02
-1.101342291294127e-02 5.160333803505102e-02 -1.267167621611875e-02
-1.213949540222170e-02 4.820255972833021e-02 -1.244759564882081e-02
-1.263449041796882e-02 4.655731514623851e-02 -1.232632393735855e-02
-1.350962314243931e-02 4.336676672835527e-02 -1.206897999566436e-02
-1.468069275044359e-02 3.833571782916612e-02 -1.160774914248108e-02
-1.572617972109425e-02 3.262916156887541e-02 -1.100775993056935e-02
-1.641123396504712e-02 2.761779181110335e-02 -1.041565019604818e-02
-1.673383450268812e-02 2.444961585270677e-02 -1.000951508466130e-02
-1.688757520821538e-02 2.252452727873677e-02 -9.750294738129384e-03
-1.711788738747161e-02 1.802373804971558e-02 -9.105422327362334e-03
-1.709652895670466e-02 1.141064583682461e-02 -8.046303545359734e-03
-1.653035679618586e-02 4.730807568847473e-03 -6.800038314818124e-03
-1.556374760523876e-02 -2.813087260633562e-04 -5.681656359129761e-03
-1.471944052704821e-02 -2.962009969287194e-03 -4.969409924033386e-03
-4.082771260414786e-03 1.701054877284380e-02 1.333788136260949e-03
-4.318053454852366e-03 1.848116447188508e-02 1.452425016658765e-03
-4.695109480440496e-03 2.088765945964172e-02 1.642760578281610e-03
-5.136367443324241e-03 2.377301834435980e-02 1.864701423766491e-03
-5.540813256015853e-03 2.647501194548008e-02 2.066335448592582e-03
-5.807233846653603e-03 2.828156866022491e-02 2.197817117544076e-03
-2.135255001354475e-03 6.124400924998885e-03 4.075530211551381e-04
-2.374468381080075e-03 7.300362846779374e-03 5.104992019973054e-04
-2.764021868965516e-03 9.331035247257369e-03 6.874703154409190e-04
-3.228773185374290e-03 1.191228481303475e-02 9.093654950582675e-04
-3.662373657690843e-03 1.444997285871513e-02 1.123103170588280e-03
-3.951662361019515e-03 1.620234137979565e-02 1.267847842694181e-03
-5.329989487580511e-05 -1.755123244384649e-05 -1.352836052248563e-05
-2.791581063134596e-04 6.648144293885938e-05 -4.684959599998706e-05
-6.686747940062854e-04 6.858546915591845e-04 -3.517294551258487e-05
-1.164018556778390e-03 2.090371148434744e-03 6.330354271355532e-05
-1.652050950789907e-03 3.948034894323660e-03 2.181897837552071e-04
-1.989907882176623e-03 5.439832440929049e-03 3.476780273530267e-04
-9.001139074846121e-03 5.110249624091218e-02 3.636684013418545e-03
-9.187442410260482e-03 5.248128571754618e-02 3.710909661290174e-03
-9.481174115003155e-03 5.466269993659423e-02 3.825491680576221e-03
-9.818015009666281e-03 5.717490569018102e-02 3.953151832149615e-03
-1.012083003208319e-02 5.944230086074431e-02 4.064455767395003e-03
-1.031745984223353e-02 6.091883877637910e-02 4.134954687511794e-03
-5.969051170895634e-03 2.938832762009674e-02 2.277055849436493e-03
-6.355850922156736e-03 3.206072036883484e-02 2.464305986922710e-03
-6.979398316302898e-03 3.644012143421832e-02 2.758820564213949e-03
-7.714395090175574e-03 4.169847199212851e-02 3.092542105395779e-03
-8.392629301181342e-03 4.662758072361528e-02 3.386060397151169e-03
-8.841600392578863e-03 4.992491498929869e-02 3.572177895915019e-03
-1.292126000922589e-02 8.250369031614496e-02 4.803309768906416e-03