<?xml version="1.0" ?> 
<!-- 
# vtk DataFile Version 3.0
-->
<VTKFile type="UnstructuredGrid" version="0.1" compressor="vtkZLibDataCompressor" byte_order="LittleEndian">
  <UnstructuredGrid>
    <FieldData>
      <DataArray type="Float64" Name="TIME" NumberOfTuples="1" format="ascii">
3.000000000000000e+00 
      </DataArray>
    </FieldData>

    <Piece NumberOfPoints="561" NumberOfCells="0" >
      <Points>
        <DataArray type="Float64" NumberOfComponents="3" format="ascii">
5.000000000000000e-01 8.660254037839999e-01 1.000000000000000e+00
0.000000000000000e+00 1.000000000000000e+00 1.000000000000000e+00
0.000000000000000e+00 1.000000000000000e+00 1.500000000000000e+00
5.000000000000000e-01 8.660254037839999e-01 1.500000000000000e+00
8.660254037839999e-01 5.000000000000000e-01 1.000000000000000e+00
5.000000000000000e-01 8.660254037839999e-01 1.000000000000000e+00
5.000000000000000e-01 8.660254037839999e-01 1.500000000000000e+00
8.660254037839999e-01 5.000000000000000e-01 1.500000000000000e+00
5.000000000000000e-01 8.660254037839999e-01 5.000000000000000e-01
0.000000000000000e+00 1.000000000000000e+00 5.000000000000000e-01
0.000000000000000e+00 1.000000000000000e+00 1.000000000000000e+00
5.000000000000000e-01 8.660254037839999e-01 1.000000000000000e+00
8.660254037839999e-01 5.000000000000000e-01 5.000000000000000e-01
5.000000000000000e-01 8.660254037839999e-01 5.000000000000000e-01
5.000000000000000e-01 8.660254037839999e-01 1.000000000000000e+00
8.660254037839999e-01 5.000000000000000e-01 1.000000000000000e+00
1.000000000000000e+00 0.000000000000000e+00 5.000000000000000e-01
8.660254037839999e-01 5.000000000000000e-01 5.000000000000000e-01
8.660254037839999e-01 5.000000000000000e-01 1.000000000000000e+00
1.000000000000000e+00 0.000000000000000e+00 1.000000000000000e+00
8.660254037839999e-01 5.000000000000000e-01 0.000000000000000e+00
5.000000000000000e-01 8.660254037839999e-01 0.000000000000000e+00
5.000000000000000e-01 8.660254037839999e-01 5.000000000000000e-01
8.660254037839999e-01 5.000000000000000e-01 5.000000000000000e-01
1.000000000000000e+00 0.000000000000000e+00 0.000000000000000e+00
8.660254037839999e-01 5.000000000000000e-01 0.000000000000000e+00
8.660254037839999e-01 5.000000000000000e-01 5.000000000000000e-01
1.000000000000000e+00 0.000000000000000e+00 5.000000000000000e-01
1.500000000000000e+00 3.000000000000000e-01 2.500000000000000e+00
1.500000000000000e+00 3.000000000000000e-01 3.000000000000000e+00
2.000000000000000e+00 3.000000000000000e-01 3.000000000000000e+00
2.000000000000000e+00 3.000000000000000e-01 2.500000000000000e+00
1.500000000000000e+00 3.000000000000000e-01 3.000000000000000e+00
1.500000000000000e+00 3.000000000000000e-01 3.500000000000000e+00
2.000000000000000e+00 3.000000000000000e-01 3.500000000000000e+00
2.000000000000000e+00 3.000000000000000e-01 3.000000000000000e+00
1.000000000000000e+00 3.000000000000000e-01 2.500000000000000e+00
1.000000000000000e+00 3.000000000000000e-01 3.000000000000000e+00
1.500000000000000e+00 3.000000000000000e-01 3.000000000000000e+00
1.500000000000000e+00 3.000000000000000e-01 2.500000000000000e+00
1.000000000000000e+00 3.000000000000000e-01 3.000000000000000e+00
1.000000000000000e+00 3.000000000000000e-01 3.500000000000000e+00
1.500000000000000e+00 3.000000000000000e-01 3.500000000000000e+00
1.500000000000000e+00 3.000000000000000e-01 3.000000000000000e+00
5.000000000000000e-01 3.000000000000000e-01 2.500000000000000e+00
5.000000000000000e-01 3.000000000000000e-01 3.000000000000000e+00
1.000000000000000e+00 3.000000000000000e-01 3.000000000000000e+00
1.000000000000000e+00 3.000000000000000e-01 2.500000000000000e+00
5.000000000000000e-01 3.000000000000000e-01 3.000000000000000e+00
5.000000000000000e-01 3.000000000000000e-01 3.500000000000000e+00
1.000000000000000e+00 3.000000000000000e-01 3.500000000000000e+00
1.000000000000000e+00 3.000000000000000e-01 3.000000000000000e+00
0.000000000000000e+00 3.000000000000000e-01 2.500000000000000e+00
0.000000000000000e+00 3.000000000000000e-01 3.000000000000000e+00
5.000000000000000e-01 3.000000000000000e-01 3.000000000000000e+00
5.000000000000000e-01 3.000000000000000e-01 2.500000000000000e+00
0.000000000000000e+00 3.000000000000000e-01 3.000000000000000e+00
0.000000000000000e+00 3.000000000000000e-01 3.500000000000000e+00
5.000000000000000e-01 3.000000000000000e-01 3.500000000000000e+00
5.000000000000000e-01 3.000000000000000e-01 3.000000000000000e+00
5.000000000000000e-01 8.660254037839999e-01 6.000000000000000e+00
0.000000000000000e+00 1.000000000000000e+00 6.000000000000000e+00
0.000000000000000e+00 1.000000000000000e+00 6.500000000000000e+00
5.000000000000000e-01 8.660254037839999e-01 6.500000000000000e+00
2.588190451030000e-01 9.659258262890000e-01 6.000000000000000e+00
0.000000000000000e+00 1.000000000000000e+00 6.250000000000000e+00
2.588190451030000e-01 9.659258262890000e-01 6.500000000000000e+00
5.000000000000000e-01 8.660254037839999e-01 6.250000000000000e+00
8.660254037839999e-01 5.000000000000000e-01 6.000000000000000e+00
5.000000000000000e-01 8.660254037839999e-01 6.000000000000000e+00
5.000000000000000e-01 8.660254037839999e-01 6.500000000000000e+00
8.660254037839999e-01 5.000000000000000e-01 6.500000000000000e+00
7.071067811870000e-01 7.071067811870000e-01 6.000000000000000e+00
5.000000000000000e-01 8.660254037839999e-01 6.250000000000000e+00
7.071067811870000e-01 7.071067811870000e-01 6.500000000000000e+00
8.660254037839999e-01 5.000000000000000e-01 6.250000000000000e+00
5.000000000000000e-01 8.660254037839999e-01 5.500000000000000e+00
0.000000000000000e+00 1.000000000000000e+00 5.500000000000000e+00
0.000000000000000e+00 1.000000000000000e+00 6.000000000000000e+00
5.000000000000000e-01 8.660254037839999e-01 6.000000000000000e+00
2.588190451030000e-01 9.659258262890000e-01 5.500000000000000e+00
0.000000000000000e+00 1.000000000000000e+00 5.750000000000000e+00
2.588190451030000e-01 9.659258262890000e-01 6.000000000000000e+00
5.000000000000000e-01 8.660254037839999e-01 5.750000000000000e+00
8.660254037839999e-01 5.000000000000000e-01 5.500000000000000e+00
5.000000000000000e-01 8.660254037839999e-01 5.500000000000000e+00
5.000000000000000e-01 8.660254037839999e-01 6.000000000000000e+00
8.660254037839999e-01 5.000000000000000e-01 6.000000000000000e+00
7.071067811870000e-01 7.071067811870000e-01 5.500000000000000e+00
5.000000000000000e-01 8.660254037839999e-01 5.750000000000000e+00
7.071067811870000e-01 7.071067811870000e-01 6.000000000000000e+00
8.660254037839999e-01 5.000000000000000e-01 5.750000000000000e+00
1.000000000000000e+00 0.000000000000000e+00 5.500000000000000e+00
8.660254037839999e-01 5.000000000000000e-01 5.500000000000000e+00
8.660254037839999e-01 5.000000000000000e-01 6.000000000000000e+00
1.000000000000000e+00 0.000000000000000e+00 6.000000000000000e+00
9.659258262890000e-01 2.588190451030000e-01 5.500000000000000e+00
8.660254037839999e-01 5.000000000000000e-01 5.750000000000000e+00
9.659258262890000e-01 2.588190451030000e-01 6.000000000000000e+00
1.000000000000000e+00 0.000000000000000e+00 5.750000000000000e+00
8.660254037839999e-01 5.000000000000000e-01 5.000000000000000e+00
5.000000000000000e-01 8.660254037839999e-01 5.000000000000000e+00
5.000000000000000e-01 8.660254037839999e-01 5.500000000000000e+00
8.660254037839999e-01 5.000000000000000e-01 5.500000000000000e+00
7.071067811870000e-01 7.071067811870000e-01 5.000000000000000e+00
5.000000000000000e-01 8.660254037839999e-01 5.250000000000000e+00
7.071067811870000e-01 7.071067811870000e-01 5.500000000000000e+00
8.660254037839999e-01 5.000000000000000e-01 5.250000000000000e+00
1.000000000000000e+00 0.000000000000000e+00 5.000000000000000e+00
8.660254037839999e-01 5.000000000000000e-01 5.000000000000000e+00
8.660254037839999e-01 5.000000000000000e-01 5.500000000000000e+00
1.000000000000000e+00 0.000000000000000e+00 5.500000000000000e+00
9.659258262890000e-01 2.588190451030000e-01 5.000000000000000e+00
8.660254037839999e-01 5.000000000000000e-01 5.250000000000000e+00
9.659258262890000e-01 2.588190451030000e-01 5.500000000000000e+00
1.000000000000000e+00 0.000000000000000e+00 5.250000000000000e+00
1.500000000000000e+00 3.000000000000000e-01 7.500000000000000e+00
1.500000000000000e+00 3.000000000000000e-01 8.000000000000000e+00
2.000000000000000e+00 3.000000000000000e-01 8.000000000000000e+00
2.000000000000000e+00 3.000000000000000e-01 7.500000000000000e+00
1.500000000000000e+00 3.000000000000000e-01 7.750000000000000e+00
1.750000000000000e+00 3.000000000000000e-01 8.000000000000000e+00
2.000000000000000e+00 3.000000000000000e-01 7.750000000000000e+00
1.750000000000000e+00 3.000000000000000e-01 7.500000000000000e+00
1.500000000000000e+00 3.000000000000000e-01 8.000000000000000e+00
1.500000000000000e+00 3.000000000000000e-01 8.500000000000000e+00
2.000000000000000e+00 3.000000000000000e-01 8.500000000000000e+00
2.000000000000000e+00 3.000000000000000e-01 8.000000000000000e+00
1.500000000000000e+00 3.000000000000000e-01 8.250000000000000e+00
1.750000000000000e+00 3.000000000000000e-01 8.500000000000000e+00
2.000000000000000e+00 3.000000000000000e-01 8.250000000000000e+00
1.750000000000000e+00 3.000000000000000e-01 8.000000000000000e+00
1.000000000000000e+00 3.000000000000000e-01 7.500000000000000e+00
1.000000000000000e+00 3.000000000000000e-01 8.000000000000000e+00
1.500000000000000e+00 3.000000000000000e-01 8.000000000000000e+00
1.500000000000000e+00 3.000000000000000e-01 7.500000000000000e+00
1.000000000000000e+00 3.000000000000000e-01 7.750000000000000e+00
1.250000000000000e+00 3.000000000000000e-01 8.000000000000000e+00
1.500000000000000e+00 3.000000000000000e-01 7.750000000000000e+00
1.250000000000000e+00 3.000000000000000e-01 7.500000000000000e+00
1.000000000000000e+00 3.000000000000000e-01 8.000000000000000e+00
1.000000000000000e+00 3.000000000000000e-01 8.500000000000000e+00
1.500000000000000e+00 3.000000000000000e-01 8.500000000000000e+00
1.500000000000000e+00 3.000000000000000e-01 8.000000000000000e+00
[...]
  <PointData>
        <DataArray type="Int32" Name="coupling_id" format="ascii">
1
1
1
1
1
1
1
1
1
1
1
1
1
1
1
1
1
1
1
1
1
1
1
1
1
1
1
1
2
2
2
2
2
2
2
2
2
2
2
2
2
2
2
2
2
2
2
2
2
2
2
2
2
2
2
2
2
2
2
2
3
3
3
3
3
3
3
3
3
3
3
3
3
3
3
3
3
3
3
3
3
3
3
3
3
3
3
3
3
3
3
3
3
3
3
3
3
3
3
3
3
3
3
3
3
3
3
3
3
3
3
3
3
3
3
3
4
4
4
4
4
4
4
4
4
4
4
4
4
4
4
4
4
4
4
4
4
4
4
4
4
4
4
4
4
4
4
4
4
4
4
4
4
4
4
4
4
4
4
4
4
4
4
4
4
4
4
4
4
4
4
4
4
4
4
4
4
4
4
4
5
5
5
5
5
5
5
5
5
5
5
5
5
5
5
5
5
5
5
5
5
5
5
5
5
5
5
5
5
5
5
5
5
5
5
5
5
5
5
5
5
5
5
5
5
5
5
5
5
5
5
5
5
5
5
5
5
5
5
5
5
5
5
6
6
6
6
6
6
6
6
6
6
6
6
6
6
6
6
6
6
6
6
6
6
6
6
6
6
6
6
6
6
6
6
6
6
6
6
6
6
6
6
6
6
6
6
6
6
6
6
6
6
6
6
6
6
6
6
6
6
6
6
6
6
6
6
6
6
6
6
6
6
6
6
7
7
7
7
7
7
7
7
7
7
7
7
7
7
7
7
7
7
7
7
7
7
7
7
7
7
7
7
7
7
7
7
7
7
7
7
7
7
7
7
7
7
8
8
8
8
8
8
8
8
8
8
8
8
8
8
8
8
8
8
8
8
8
8
8
8
8
8
8
8
8
8
8
8
8
8
8
8
8
8
8
8
8
8
8
8
8
8
8
8
9
9
9
9
9
9
9
9
9
9
9
9
9
9
9
9
9
9
9
9
9
9
9
9
9
9
9
9
9
9
9
9
9
9
9
9
9
9
9
9
9
9
9
9
9
9
9
9
9
9
9
9
9
9
9
9
9
9
9
9
9
9
9
9
9
9
9
9
9
9
9
9
10
10
10
10
10
10
10
10
10
10
10
10
10
10
10
10
10
10
10
10
10
10
10
10
10
10
10
10
10
10
10
10
10
10
10
10
10
10
10
10
10
10
10
10
10
10
10
10
10
10
10
10
10
10
10
10
10
10
10
10
10
10
10
10
10
10
10
10
10
10
10
10
10
10
10
10
10
10
10
10
10
10
10
10
        </DataArray>
        <DataArray type="Float64" Name="displacement" NumberOfComponents="3" format="ascii">
-2.259421536640088e-02 2.104102787885775e-02 -7.536401483485444e-03
0.000000000000000e+00 0.000000000000000e+00 0.000000000000000e+00
0.000000000000000e+00 0.000000000000000e+00 0.000000000000000e+00
3.317636402985769e-03 8.307751336716129e-02 -1.511195665487475e-02
4.523799625210434e-02 1.564384522947567e-01 -8.584005362945124e-03
-2.259421536640088e-02 2.104102787885775e-02 -7.536401483485444e-03
3.317636402985769e-03 8.307751336716129e-02 -1.511195665487475e-02
4.021077256513794e-02 1.220617436894254e-01 -2.911334450759639e-03
-5.926471086861451e-03 5.334560758744555e-02 -9.472675938197617e-03
0.000000000000000e+00 0.000000000000000e+00 0.000000000000000e+00
0.000000000000000e+00 0.000000000000000e+00 0.000000000000000e+00
-2.259421536640088e-02 2.104102787885775e-02 -7.536401483485444e-03
4.137370596556222e-02 1.353257942935029e-01 -5.188611402272392e-03
-5.926471086861451e-03 5.334560758744555e-02 -9.472675938197617e-03
-2.259421536640088e-02 2.104102787885775e-02 -7.536401483485444e-03
4.523799625210434e-02 1.564384522947567e-01 -8.584005362945124e-03
2.290488890273881e-01 2.667553536057966e-01 6.558068286626639e-03
4.137370596556222e-02 1.353257942935029e-01 -5.188611402272392e-03
4.523799625210434e-02 1.564384522947567e-01 -8.584005362945124e-03
1.680590643354618e-01 1.959429749561821e-01 4.122364353502217e-03
8.394170949277202e-02 1.850697520615022e-01 -1.255920285783067e-03
-1.546085768276717e-02 3.317545129301314e-02 -1.313196734690881e-02
-5.926471086861451e-03 5.334560758744555e-02 -9.472675938197617e-03
4.137370596556222e-02 1.353257942935029e-01 -5.188611402272392e-03
3.298647016163483e-01 2.991467705672169e-01 2.448261742392513e-02
8.394170949277202e-02 1.850697520615022e-01 -1.255920285783067e-03
4.137370596556222e-02 1.353257942935029e-01 -5.188611402272392e-03
2.290488890273881e-01 2.667553536057966e-01 6.558068286626639e-03
-1.049949534214556e-02 1.500366205427904e-01 1.818571052224849e-02
-6.024708499303189e-02 2.903742908003817e-01 -2.862013171039735e-03
-8.216197844915030e-02 4.356113322980175e-01 -9.867090418511637e-03
-2.696828131307250e-02 2.737727409524585e-01 2.192499420584815e-02
-6.024708499303189e-02 2.903742908003817e-01 -2.862013171039735e-03
-1.116368800939507e-01 4.264859293367894e-01 -2.419294173522113e-02
-1.492153329780490e-01 6.279760705528679e-01 -4.772657670823177e-02
-8.216197844915030e-02 4.356113322980175e-01 -9.867090418511637e-03
4.173756183502686e-03 4.391935856230483e-02 6.668679203611028e-03
-3.829891944264874e-02 1.522045265590417e-01 -2.482583271481431e-04
-6.024708499303189e-02 2.903742908003817e-01 -2.862013171039735e-03
-1.049949534214556e-02 1.500366205427904e-01 1.818571052224849e-02
-3.829891944264874e-02 1.522045265590417e-01 -2.482583271481431e-04
-8.342385203464930e-02 2.333791333782444e-01 -5.098350821530762e-03
-1.116368800939507e-01 4.264859293367894e-01 -2.419294173522113e-02
-6.024708499303189e-02 2.903742908003817e-01 -2.862013171039735e-03
2.167112198405707e-04 3.551885386126608e-03 -8.996467008413056e-04
-2.093349161108815e-02 5.623721761727224e-02 -3.674866919891606e-04
-3.829891944264874e-02 1.522045265590417e-01 -2.482583271481431e-04
4.173756183502686e-03 4.391935856230483e-02 6.668679203611028e-03
-2.093349161108815e-02 5.623721761727224e-02 -3.674866919891606e-04
-4.756722563379462e-02 7.677086042685916e-02 5.817851762750070e-03
-8.342385203464930e-02 2.333791333782444e-01 -5.098350821530762e-03
-3.829891944264874e-02 1.522045265590417e-01 -2.482583271481431e-04
0.000000000000000e+00 0.000000000000000e+00 0.000000000000000e+00
0.000000000000000e+00 0.000000000000000e+00 0.000000000000000e+00
-2.093349161108815e-02 5.623721761727224e-02 -3.674866919891606e-04
2.167112198405707e-04 3.551885386126608e-03 -8.996467008413056e-04
0.000000000000000e+00 0.000000000000000e+00 0.000000000000000e+00
0.000000000000000e+00 0.000000000000000e+00 0.000000000000000e+00
-4.756722563379462e-02 7.677086042685916e-02 5.817851762750070e-03
-2.093349161108815e-02 5.623721761727224e-02 -3.674866919891606e-04
-8.930281538075568e-03 5.319685149703635e-02 -3.531833718267485e-03
0.000000000000000e+00 0.000000000000000e+00 0.000000000000000e+00
0.000000000000000e+00 0.000000000000000e+00 0.000000000000000e+00
-9.334221995810632e-03 2.781176529137308e-02 1.594292369142991e-03
-1.073853990760329e-02 1.599433838237363e-02 -2.478187947227539e-03
0.000000000000000e+00 0.000000000000000e+00 0.000000000000000e+00
-5.388055468099562e-03 7.004672048333216e-03 2.285226159179921e-03
-8.896842581367914e-03 4.361051458762111e-02 -7.147473395363590e-04
5.276482066673649e-02 1.506423512948268e-01 -7.902101940651107e-04
-8.930281538075568e-03 5.319685149703635e-02 -3.531833718267485e-03
-9.334221995810632e-03 2.781176529137308e-02 1.594292369142991e-03
3.353765539739229e-02 1.061621258275769e-01 -1.738088262329462e-03
1.132112722331435e-02 1.012764700013188e-01 -2.779884068177196e-03
-8.896842581367914e-03 4.361051458762111e-02 -7.147473395363590e-04
2.562584350955355e-03 6.606068512704433e-02 4.705567473779482e-04
4.442673967348387e-02 1.275004863450204e-01 -1.456688900396408e-03
-9.333342539197376e-03 6.095157291399522e-02 -6.553265247963402e-03
0.000000000000000e+00 0.000000000000000e+00 0.000000000000000e+00
0.000000000000000e+00 0.000000000000000e+00 0.000000000000000e+00
-8.930281538075568e-03 5.319685149703635e-02 -3.531833718267485e-03
-1.057685722079696e-02 1.496680695484665e-02 -4.909637114411503e-03
0.000000000000000e+00 0.000000000000000e+00 0.000000000000000e+00
-1.073853990760329e-02 1.599433838237363e-02 -2.478187947227539e-03
-8.931457062646531e-03 5.809629625694057e-02 -6.334155326602975e-03
7.664246049910861e-02 1.948846274911517e-01 -1.541173365325221e-03
-9.333342539197376e-03 6.095157291399522e-02 -6.553265247963402e-03
-8.930281538075568e-03 5.319685149703635e-02 -3.531833718267485e-03
5.276482066673649e-02 1.506423512948268e-01 -7.902101940651107e-04
1.912188796415759e-02 1.284676550037172e-01 -6.928669274209653e-03
-8.931457062646531e-03 5.809629625694057e-02 -6.334155326602975e-03
1.132112722331435e-02 1.012764700013188e-01 -2.779884068177196e-03
6.373285389522987e-02 1.747481193520628e-01 -1.117857089186991e-03
2.489368011507138e-01 2.803857877644696e-01 7.118954740517935e-03
7.664246049910861e-02 1.948846274911517e-01 -1.541173365325221e-03
5.276482066673649e-02 1.506423512948268e-01 -7.902101940651107e-04
1.849850839170488e-01 2.099519665905286e-01 -1.617369314049633e-02
1.557767698146344e-01 2.485354031253452e-01 6.378969967211212e-03
6.373285389522987e-02 1.747481193520628e-01 -1.117857089186991e-03
1.132576671525116e-01 1.892121860619074e-01 -2.512001489892945e-03
2.124680287362710e-01 2.433514282144416e-01 -5.145434247322278e-03
1.008777461365665e-01 2.362711704669850e-01 6.498467358493798e-03
-9.672414520787154e-03 6.077528838030655e-02 -9.895688159928362e-03
-9.333342539197376e-03 6.095157291399522e-02 -6.553265247963402e-03
7.664246049910861e-02 1.948846274911517e-01 -1.541173365325221e-03
2.210994904456498e-02 1.433772350687201e-01 -3.821676777666205e-03
-8.559338446790965e-03 6.351993919952537e-02 -6.324242287905513e-03
1.912188796415759e-02 1.284676550037172e-01 -6.928669274209653e-03
9.088047768898300e-02 2.143283909684305e-01 -5.472952981593338e-04
3.793864817010737e-01 3.598871818403326e-01 4.125368805358054e-02
1.008777461365665e-01 2.362711704669850e-01 6.498467358493798e-03
7.664246049910861e-02 1.948846274911517e-01 -1.541173365325221e-03
2.489368011507138e-01 2.803857877644696e-01 7.118954740517935e-03
2.421159599603788e-01 3.118395200316212e-01 2.598690779255808e-02
9.088047768898300e-02 2.143283909684305e-01 -5.472952981593338e-04
1.557767698146344e-01 2.485354031253452e-01 6.378969967211212e-03
3.001127677458286e-01 3.172310752626330e-01 1.843636983925556e-02
-1.483295507346032e-01 4.886555526853039e-01 5.499492120632343e-02
-2.096355798274188e-01 5.622836484718197e-01 4.948385153603674e-02
-3.112516125201643e-01 8.572600671153714e-01 4.086144682213622e-02
-2.411542194778773e-01 7.692260820472925e-01 5.761902146479336e-02
-1.802758105201943e-01 5.260754018612568e-01 5.116406548614805e-02
-2.608815049061874e-01 7.077961915061701e-01 4.573974406118708e-02
-2.746454608775180e-01 8.123583968640307e-01 5.054524708838137e-02
-1.942407482798862e-01 6.268852125829223e-01 5.663492424888439e-02
-2.096355798274188e-01 5.622836484718197e-01 4.948385153603674e-02
-2.709731374751403e-01 6.275861482342360e-01 4.128687877923021e-02
-3.899263770407613e-01 9.756739442654252e-01 1.716652448707379e-02
-3.112516125201643e-01 8.572600671153714e-01 4.086144682213622e-02
-2.366991927059197e-01 5.978816333775916e-01 4.768063201898798e-02
-3.268515721805514e-01 8.039566192184684e-01 3.210748760237792e-02
-3.498906548413507e-01 9.098352836634089e-01 3.071001478505941e-02
-2.608815049061874e-01 7.077961915061701e-01 4.573974406118708e-02
-6.703028109570575e-02 2.377076306855735e-01 4.049444558086979e-02
-1.173636629779045e-01 2.939285729162577e-01 4.042805222947798e-02
-2.096355798274188e-01 5.622836484718197e-01 4.948385153603674e-02
-1.483295507346032e-01 4.886555526853039e-01 5.499492120632343e-02
-9.357436559426302e-02 2.681305848547312e-01 4.030557044498551e-02
-1.598367730462757e-01 4.228465652044316e-01 4.926927758788402e-02
-1.802758105201943e-01 5.260754018612568e-01 5.116406548614805e-02
-1.056978625384517e-01 3.582380492457004e-01 4.896726837308218e-02
-1.173636629779045e-01 2.939285729162577e-01 4.042805222947798e-02
-1.702753442873193e-01 3.240311127961912e-01 3.697420427095999e-02
-2.709731374751403e-01 6.275861482342360e-01 4.128687877923021e-02
-2.096355798274188e-01 5.622836484718197e-01 4.948385153603674e-02
-1.449722516258269e-01 3.110204061401269e-01 3.861370264900366e-02
-2.186852998701123e-01 4.695922578294356e-01 4.231170823801733e-02
-2.366991927059197e-01 5.978816333775916e-01 4.768063201898798e-02
-1.598367730462757e-01 4.228465652044316e-01 4.926927758788402e-02
-1.146784484808222e-02 5.123651606461815e-02 1.119740690768989e-02
-5.145569538572259e-02 8.865539189586197e-02 1.324256103429633e-02
-1.173636629779045e-01 2.939285729162577e-01 4.042805222947798e-02
-6.703028109570575e-02 2.377076306855735e-01 4.049444558086979e-02
-3.305573246693067e-02 7.113990103964757e-02 1.087512305416638e-02
-8.049442065786783e-02 1.799659743321286e-01 2.726060828309507e-02
-9.357436559426302e-02 2.681305848547312e-01 4.030557044498551e-02
-3.361618718748893e-02 1.305180308280859e-01 2.501412198870945e-02
-5.145569538572259e-02 8.865539189586197e-02 1.324256103429633e-02
-8.109618938159313e-02 9.215685150917757e-02 2.262202964169369e-02
-1.702753442873193e-01 3.240311127961912e-01 3.697420427095999e-02
-1.173636629779045e-01 2.939285729162577e-01 4.042805222947798e-02
-6.822124294405285e-02 9.548734463360942e-02 1.634351264025824e-02
-1.250827366978216e-01 1.965296747245807e-01 3.053710990505110e-02
-1.449722516258269e-01 3.110204061401269e-01 3.861370264900366e-02
-8.049442065786783e-02 1.799659743321286e-01 2.726060828309507e-02
0.000000000000000e+00 0.000000000000000e+00 0.000000000000000e+00
0.000000000000000e+00 0.000000000000000e+00 0.000000000000000e+00
-5.145569538572259e-02 8.865539189586197e-02 1.324256103429633e-02
-1.146784484808222e-02 5.123651606461815e-02 1.119740690768989e-02
0.000000000000000e+00 0.000000000000000e+00 0.000000000000000e+00
-2.528594098593495e-02 2.757007281346868e-02 3.247600249345339e-03
-3.305573246693067e-02 7.113990103964757e-02 1.087512305416638e-02
-2.389459610811467e-03 7.601475603543129e-03 1.193825271424309e-03
0.000000000000000e+00 0.000000000000000e+00 0.000000000000000e+00
0.000000000000000e+00 0.000000000000000e+00 0.000000000000000e+00
-8.109618938159313e-02 9.215685150917757e-02 2.262202964169369e-02
-5.145569538572259e-02 8.865539189586197e-02 1.324256103429633e-02
0.000000000000000e+00 0.000000000000000e+00 0.000000000000000e+00
-3.959665426456530e-02 2.537333161681382e-02 1.558977535277073e-02
-6.822124294405285e-02 9.548734463360942e-02 1.634351264025824e-02
-2.528594098593495e-02 2.757007281346868e-02 3.247600249345339e-03
-8.660031251287781e-03 5.459623629817723e-02 -3.712833601987597e-03
0.000000000000000e+00 0.000000000000000e+00 0.000000000000000e+00
0.000000000000000e+00 0.000000000000000e+00 0.000000000000000e+00
-9.820585512597402e-03 2.850023735216933e-02 1.588883833676391e-03
-1.100462999153556e-02 1.685887091434413e-02 -2.590940266312458e-03
0.000000000000000e+00 0.000000000000000e+00 0.000000000000000e+00
-5.646170397304751e-03 7.167107482140667e-03 2.076720446957836e-03
-9.012402882769055e-03 4.421885790361990e-02 -9.026301960979310e-04
-7.967691278823130e-03 1.362347663656183e-02 3.596955932216872e-05
5.335651807282871e-02 1.529240984675807e-01 -5.230419299877553e-04
-8.660031251287781e-03 5.459623629817723e-02 -3.712833601987597e-03
-9.820585512597402e-03 2.850023735216933e-02 1.588883833676391e-03
3.425957616116126e-02 1.074015118294788e-01 -1.574317607550668e-03
1.169136379264624e-02 1.030365820130987e-01 -2.600084539118086e-03
-9.012402882769055e-03 4.421885790361990e-02 -9.026301960979310e-04
2.803309570745816e-03 6.769133320630338e-02 4.161312171291343e-04
4.500470663791534e-02 1.296517503962462e-01 -1.531718222091527e-03
8.286123136744816e-03 8.595763625844277e-02 -8.401192899825105e-04
-1.046064256952117e-02 6.232945520414712e-02 -5.538648743234731e-03
0.000000000000000e+00 0.000000000000000e+00 0.000000000000000e+00
0.000000000000000e+00 0.000000000000000e+00 0.000000000000000e+00
-8.660031251287781e-03 5.459623629817723e-02 -3.712833601987597e-03
-1.128851876566730e-02 1.635178452853103e-02 -4.773126637035219e-03
0.000000000000000e+00 0.000000000000000e+00 0.000000000000000e+00
-1.100462999153556e-02 1.685887091434413e-02 -2.590940266312458e-03
-9.630734770512128e-03 5.951472462567020e-02 -6.051527320382277e-03
-1.125288470617899e-02 1.667080849179681e-02 -4.349570653772616e-03
7.780890835687304e-02 1.981513994480919e-01 -2.188585478627658e-03
-1.046064256952117e-02 6.232945520414712e-02 -5.538648743234731e-03
-8.660031251287781e-03 5.459623629817723e-02 -3.712833601987597e-03
5.335651807282871e-02 1.529240984675807e-01 -5.230419299877553e-04
1.947014338004982e-02 1.308761896139088e-01 -6.975183266463958e-03
-9.630734770512128e-03 5.951472462567020e-02 -6.051527320382277e-03
1.169136379264624e-02 1.030365820130987e-01 -2.600084539118086e-03
6.373429717874535e-02 1.775576398566363e-01 -8.755559521151923e-04
1.540740416893460e-02 1.187267222344001e-01 -5.857462874647723e-03
2.518961174721790e-01 2.857446704762352e-01 7.859266961018463e-03
7.780890835687304e-02 1.981513994480919e-01 -2.188585478627658e-03
5.335651807282871e-02 1.529240984675807e-01 -5.230419299877553e-04
1.862043555899124e-01 2.121039322482248e-01 -1.593142363876332e-02
1.564771802200422e-01 2.532855666164064e-01 7.894745900417277e-03
6.373429717874535e-02 1.775576398566363e-01 -8.755559521151923e-04
1.143135855921706e-01 1.915158773848203e-01 -3.142859781041452e-03
2.142607944639026e-01 2.466799359053213e-01 -6.808701399014794e-03
1.325303431185572e-01 2.218990396839698e-01 2.751835929565516e-03
9.912664455486453e-02 2.430667989913013e-01 1.015719456195363e-02
-1.071779346299340e-02 6.300060595144663e-02 -8.768845666468295e-03
-1.046064256952117e-02 6.232945520414712e-02 -5.538648743234731e-03
7.780890835687304e-02 1.981513994480919e-01 -2.188585478627658e-03
2.426375752188970e-02 1.465249223372345e-01 -4.279518221533607e-03
-9.093020532757956e-03 6.508744038651892e-02 -7.425041092444573e-03
1.947014338004982e-02 1.308761896139088e-01 -6.975183266463958e-03
9.125332988469759e-02 2.185234813361581e-01 -9.990177997387661e-05
2.195751328024953e-02 1.396200164014589e-01 -4.310090889442009e-03
3.826354422728855e-01 3.654312180937306e-01 4.000262598470172e-02
9.912664455486453e-02 2.430667989913013e-01 1.015719456195363e-02
7.780890835687304e-02 1.981513994480919e-01 -2.188585478627658e-03
2.518961174721790e-01 2.857446704762352e-01 7.859266961018463e-03
2.438730229180959e-01 3.167409363494227e-01 2.666557970444927e-02
9.125332988469759e-02 2.185234813361581e-01 -9.990177997387661e-05
1.564771802200422e-01 2.532855666164064e-01 7.894745900417277e-03
3.004271527320062e-01 3.239928903022165e-01 2.069446968110178e-02
1.947968404864426e-01 2.823438956134491e-01 1.111165473303188e-02
-1.523163919448149e-01 4.959336812460819e-01 5.445810165524456e-02
-2.156257609549697e-01 5.705671647496808e-01 4.801097469414373e-02
-3.174791926519642e-01 8.693013284644480e-01 3.978689354231690e-02
-2.460946278827547e-01 7.787777048313742e-01 5.654640537515476e-02
-1.844453641217956e-01 5.338649564993156e-01 5.095932328220698e-02
-2.675252037541820e-01 7.176441606442070e-01 4.386308871915290e-02
-2.808608236886525e-01 8.227739648213901e-01 4.943715944774496e-02
-1.991673111387027e-01 6.347728129090495e-01 5.583666709871871e-02
-2.323984559352346e-01 6.765376271986361e-01 5.022562058316815e-02
-2.156257609549697e-01 5.705671647496808e-01 4.801097469414373e-02
-2.784994419391740e-01 6.367531797662558e-01 3.999876266383673e-02
-3.980687083019725e-01 9.892140122082391e-01 1.538826920491232e-02
-3.174791926519642e-01 8.693013284644480e-01 3.978689354231690e-02
-2.420395375962123e-01 6.078903841775536e-01 4.683058225564096e-02
-3.340432133463582e-01 8.162727843475623e-01 3.049625948355761e-02
-3.580099111536306e-01 9.213523390901108e-01 2.837470828294109e-02
-2.675252037541820e-01 7.176441606442070e-01 4.386308871915290e-02
-2.981072514645675e-01 7.652007307735829e-01 3.965170146936536e-02
-6.869964021662989e-02 2.406312024648176e-01 3.915675139033326e-02
-1.201616966501104e-01 3.000560133160124e-01 3.994998902031099e-02
-2.156257609549697e-01 5.705671647496808e-01 4.801097469414373e-02
-1.523163919448149e-01 4.959336812460819e-01 5.445810165524456e-02
-9.591816595050218e-02 2.737495187829314e-01 4.011352196056173e-02
-1.638987215672931e-01 4.309010579134561e-01 4.879857256924147e-02
-1.844453641217956e-01 5.338649564993156e-01 5.095932328220698e-02
-1.070687616570154e-01 3.642492253308796e-01 4.935025646115676e-02
-1.383812995670393e-01 3.980685489574645e-01 4.711207357767044e-02
-1.201616966501104e-01 3.000560133160124e-01 3.994998902031099e-02
-1.737382939626466e-01 3.322818415616880e-01 3.691567600592194e-02
-2.784994419391740e-01 6.367531797662558e-01 3.999876266383673e-02
-2.156257609549697e-01 5.705671647496808e-01 4.801097469414373e-02
-1.492135055316010e-01 3.183809642033036e-01 3.712454295580692e-02
-2.260833890542657e-01 4.794053507531952e-01 3.931420474794578e-02
-2.420395375962123e-01 6.078903841775536e-01 4.683058225564096e-02