<?xml version="1.0" ?> 
<!-- 
# vtk DataFile Version 3.0
-->
<VTKFile type="UnstructuredGrid" version="0.1" compressor="vtkZLibDataCompressor" byte_order="LittleEndian">
  <UnstructuredGrid>
    <FieldData>
      <DataArray type="Float64" Name="TIME" NumberOfTuples="1" format="ascii">
1.000000010000000e+00 
      </DataArray>
    </FieldData>

    <Piece NumberOfPoints="927" NumberOfCells="0" >
      <Points>
        <DataArray type="Float64" NumberOfComponents="3" format="ascii">
7.000000000000000e-01 0.000000000000000e+00 0.000000000000000e+00
6.062177826489999e-01 3.500000000000000e-01 0.000000000000000e+00
6.062177826489999e-01 3.500000000000000e-01 5.000000000000000e-01
7.000000000000000e-01 0.000000000000000e+00 5.000000000000000e-01
1.000000000000000e+00 0.000000000000000e+00 0.000000000000000e+00
8.660254037839999e-01 5.000000000000000e-01 0.000000000000000e+00
8.660254037839999e-01 5.000000000000000e-01 5.000000000000000e-01
1.000000000000000e+00 0.000000000000000e+00 5.000000000000000e-01
3.500000000000000e-01 6.062177826489999e-01 0.000000000000000e+00
3.500000000000000e-01 6.062177826489999e-01 5.000000000000000e-01
5.000000000000000e-01 8.660254037839999e-01 0.000000000000000e+00
5.000000000000000e-01 8.660254037839999e-01 5.000000000000000e-01
0.000000000000000e+00 7.000000000000000e-01 0.000000000000000e+00
0.000000000000000e+00 7.000000000000000e-01 5.000000000000000e-01
0.000000000000000e+00 1.000000000000000e+00 0.000000000000000e+00
0.000000000000000e+00 1.000000000000000e+00 5.000000000000000e-01
6.062177826489999e-01 3.500000000000000e-01 1.000000000000000e+00
7.000000000000000e-01 0.000000000000000e+00 1.000000000000000e+00
8.660254037839999e-01 5.000000000000000e-01 1.000000000000000e+00
1.000000000000000e+00 0.000000000000000e+00 1.000000000000000e+00
3.500000000000000e-01 6.062177826489999e-01 1.000000000000000e+00
5.000000000000000e-01 8.660254037839999e-01 1.000000000000000e+00
0.000000000000000e+00 7.000000000000000e-01 1.000000000000000e+00
0.000000000000000e+00 1.000000000000000e+00 1.000000000000000e+00
6.062177826489999e-01 3.500000000000000e-01 1.500000000000000e+00
7.000000000000000e-01 0.000000000000000e+00 1.500000000000000e+00
8.660254037839999e-01 5.000000000000000e-01 1.500000000000000e+00
1.000000000000000e+00 0.000000000000000e+00 1.500000000000000e+00
3.500000000000000e-01 6.062177826489999e-01 1.500000000000000e+00
5.000000000000000e-01 8.660254037839999e-01 1.500000000000000e+00
0.000000000000000e+00 7.000000000000000e-01 1.500000000000000e+00
0.000000000000000e+00 1.000000000000000e+00 1.500000000000000e+00
0.000000000000000e+00 0.000000000000000e+00 3.500000000000000e+00
0.000000000000000e+00 0.000000000000000e+00 3.000000000000000e+00
0.000000000000000e+00 3.000000000000000e-01 3.000000000000000e+00
0.000000000000000e+00 3.000000000000000e-01 3.500000000000000e+00
5.000000000000000e-01 0.000000000000000e+00 3.500000000000000e+00
5.000000000000000e-01 0.000000000000000e+00 3.000000000000000e+00
5.000000000000000e-01 3.000000000000000e-01 3.000000000000000e+00
5.000000000000000e-01 3.000000000000000e-01 3.500000000000000e+00
0.000000000000000e+00 0.000000000000000e+00 2.500000000000000e+00
0.000000000000000e+00 3.000000000000000e-01 2.500000000000000e+00
5.000000000000000e-01 0.000000000000000e+00 2.500000000000000e+00
5.000000000000000e-01 3.000000000000000e-01 2.500000000000000e+00
1.000000000000000e+00 0.000000000000000e+00 3.500000000000000e+00
1.000000000000000e+00 0.000000000000000e+00 3.000000000000000e+00
1.000000000000000e+00 3.000000000000000e-01 3.000000000000000e+00
1.000000000000000e+00 3.000000000000000e-01 3.500000000000000e+00
1.000000000000000e+00 0.000000000000000e+00 2.500000000000000e+00
1.000000000000000e+00 3.000000000000000e-01 2.500000000000000e+00
1.500000000000000e+00 0.000000000000000e+00 3.500000000000000e+00
1.500000000000000e+00 0.000000000000000e+00 3.000000000000000e+00
1.500000000000000e+00 3.000000000000000e-01 3.000000000000000e+00
1.500000000000000e+00 3.000000000000000e-01 3.500000000000000e+00
1.500000000000000e+00 0.000000000000000e+00 2.500000000000000e+00
1.500000000000000e+00 3.000000000000000e-01 2.500000000000000e+00
2.000000000000000e+00 0.000000000000000e+00 3.500000000000000e+00
2.000000000000000e+00 0.000000000000000e+00 3.000000000000000e+00
2.000000000000000e+00 3.000000000000000e-01 3.000000000000000e+00
2.000000000000000e+00 3.000000000000000e-01 3.500000000000000e+00
2.000000000000000e+00 0.000000000000000e+00 2.500000000000000e+00
2.000000000000000e+00 3.000000000000000e-01 2.500000000000000e+00
7.000000000000000e-01 0.000000000000000e+00 5.000000000000000e+00
6.062177826489999e-01 3.500000000000000e-01 5.000000000000000e+00
6.062177826489999e-01 3.500000000000000e-01 5.500000000000000e+00
7.000000000000000e-01 0.000000000000000e+00 5.500000000000000e+00
1.000000000000000e+00 0.000000000000000e+00 5.000000000000000e+00
8.660254037839999e-01 5.000000000000000e-01 5.000000000000000e+00
8.660254037839999e-01 5.000000000000000e-01 5.500000000000000e+00
1.000000000000000e+00 0.000000000000000e+00 5.500000000000000e+00
6.761480784020000e-01 1.811733315720000e-01 5.000000000000000e+00
6.062177826489999e-01 3.500000000000000e-01 5.250000000000000e+00
6.761480784020000e-01 1.811733315720000e-01 5.500000000000000e+00
7.000000000000000e-01 0.000000000000000e+00 5.250000000000000e+00
8.500000000000000e-01 0.000000000000000e+00 5.000000000000000e+00
7.361215932170000e-01 4.250000000000000e-01 5.000000000000000e+00
7.361215932170000e-01 4.250000000000000e-01 5.500000000000000e+00
8.500000000000000e-01 0.000000000000000e+00 5.500000000000000e+00
9.659258262890000e-01 2.588190451030000e-01 5.000000000000000e+00
8.660254037839999e-01 5.000000000000000e-01 5.250000000000000e+00
9.659258262890000e-01 2.588190451030000e-01 5.500000000000000e+00
1.000000000000000e+00 0.000000000000000e+00 5.250000000000000e+00
3.500000000000000e-01 6.062177826489999e-01 5.000000000000000e+00
3.500000000000000e-01 6.062177826489999e-01 5.500000000000000e+00
5.000000000000000e-01 8.660254037839999e-01 5.000000000000000e+00
5.000000000000000e-01 8.660254037839999e-01 5.500000000000000e+00
4.949747468310000e-01 4.949747468310000e-01 5.000000000000000e+00
3.500000000000000e-01 6.062177826489999e-01 5.250000000000000e+00
4.949747468310000e-01 4.949747468310000e-01 5.500000000000000e+00
4.250000000000000e-01 7.361215932170000e-01 5.000000000000000e+00
4.250000000000000e-01 7.361215932170000e-01 5.500000000000000e+00
7.071067811870000e-01 7.071067811870000e-01 5.000000000000000e+00
5.000000000000000e-01 8.660254037839999e-01 5.250000000000000e+00
7.071067811870000e-01 7.071067811870000e-01 5.500000000000000e+00
0.000000000000000e+00 7.000000000000000e-01 5.000000000000000e+00
0.000000000000000e+00 7.000000000000000e-01 5.500000000000000e+00
0.000000000000000e+00 1.000000000000000e+00 5.000000000000000e+00
0.000000000000000e+00 1.000000000000000e+00 5.500000000000000e+00
1.811733315720000e-01 6.761480784020000e-01 5.000000000000000e+00
0.000000000000000e+00 7.000000000000000e-01 5.250000000000000e+00
1.811733315720000e-01 6.761480784020000e-01 5.500000000000000e+00
0.000000000000000e+00 8.500000000000000e-01 5.000000000000000e+00
0.000000000000000e+00 8.500000000000000e-01 5.500000000000000e+00
2.588190451030000e-01 9.659258262890000e-01 5.000000000000000e+00
0.000000000000000e+00 1.000000000000000e+00 5.250000000000000e+00
2.588190451030000e-01 9.659258262890000e-01 5.500000000000000e+00
6.062177826489999e-01 3.500000000000000e-01 6.000000000000000e+00
7.000000000000000e-01 0.000000000000000e+00 6.000000000000000e+00
8.660254037839999e-01 5.000000000000000e-01 6.000000000000000e+00
1.000000000000000e+00 0.000000000000000e+00 6.000000000000000e+00
6.062177826489999e-01 3.500000000000000e-01 5.750000000000000e+00
6.761480784020000e-01 1.811733315720000e-01 6.000000000000000e+00
7.000000000000000e-01 0.000000000000000e+00 5.750000000000000e+00
7.361215932170000e-01 4.250000000000000e-01 6.000000000000000e+00
8.500000000000000e-01 0.000000000000000e+00 6.000000000000000e+00
8.660254037839999e-01 5.000000000000000e-01 5.750000000000000e+00
9.659258262890000e-01 2.588190451030000e-01 6.000000000000000e+00
1.000000000000000e+00 0.000000000000000e+00 5.750000000000000e+00
3.500000000000000e-01 6.062177826489999e-01 6.000000000000000e+00
5.000000000000000e-01 8.660254037839999e-01 6.000000000000000e+00
3.500000000000000e-01 6.062177826489999e-01 5.750000000000000e+00
4.949747468310000e-01 4.949747468310000e-01 6.000000000000000e+00
4.250000000000000e-01 7.361215932170000e-01 6.000000000000000e+00
5.000000000000000e-01 8.660254037839999e-01 5.750000000000000e+00
7.071067811870000e-01 7.071067811870000e-01 6.000000000000000e+00
0.000000000000000e+00 7.000000000000000e-01 6.000000000000000e+00
0.000000000000000e+00 1.000000000000000e+00 6.000000000000000e+00
0.000000000000000e+00 7.000000000000000e-01 5.750000000000000e+00
1.811733315720000e-01 6.761480784020000e-01 6.000000000000000e+00
0.000000000000000e+00 8.500000000000000e-01 6.000000000000000e+00
0.000000000000000e+00 1.000000000000000e+00 5.750000000000000e+00
2.588190451030000e-01 9.659258262890000e-01 6.000000000000000e+00
6.062177826489999e-01 3.500000000000000e-01 6.500000000000000e+00
7.000000000000000e-01 0.000000000000000e+00 6.500000000000000e+00
8.660254037839999e-01 5.000000000000000e-01 6.500000000000000e+00
1.000000000000000e+00 0.000000000000000e+00 6.500000000000000e+00
6.062177826489999e-01 3.500000000000000e-01 6.250000000000000e+00
6.761480784020000e-01 1.811733315720000e-01 6.500000000000000e+00
7.000000000000000e-01 0.000000000000000e+00 6.250000000000000e+00
7.361215932170000e-01 4.250000000000000e-01 6.500000000000000e+00
8.500000000000000e-01 0.000000000000000e+00 6.500000000000000e+00
8.660254037839999e-01 5.000000000000000e-01 6.250000000000000e+00
9.659258262890000e-01 2.588190451030000e-01 6.500000000000000e+00
1.000000000000000e+00 0.000000000000000e+00 6.250000000000000e+00
[...]
  <PointData>
        <DataArray type="Float64" Name="displacement" NumberOfComponents="3" format="ascii">
2.523371802972837e-01 1.177683054682912e-01 -2.062919295369656e-02
1.188528478364072e-01 6.496279979316903e-02 -1.921801335796332e-02
8.302426722908496e-02 5.348935516721808e-02 -1.753454715290893e-02
2.109131971355291e-01 9.422264208585755e-02 -2.375870365912592e-02
2.479246392042559e-01 2.170557463151852e-01 -4.405976714190948e-04
5.737549105619320e-02 1.357436612223071e-01 -7.950572848446502e-03
2.526301140686912e-02 9.995845310390078e-02 -1.031558058018103e-02
1.917075907727797e-01 2.131208772373548e-01 -2.387496109911865e-03
2.952376763991975e-02 1.252484818667695e-02 -5.390841204327447e-04
2.425200623877849e-02 2.285768553728115e-02 -1.200709670746115e-02
-1.603789763412863e-02 2.160164923469154e-02 -1.342216157739717e-02
-3.217284041680684e-03 4.148087067412704e-02 -9.255913905929449e-03
0.000000000000000e+00 0.000000000000000e+00 0.000000000000000e+00
0.000000000000000e+00 0.000000000000000e+00 0.000000000000000e+00
0.000000000000000e+00 0.000000000000000e+00 0.000000000000000e+00
0.000000000000000e+00 0.000000000000000e+00 0.000000000000000e+00
8.075012543582466e-02 6.840973617360106e-02 -8.429747492617783e-03
1.568973642487866e-01 1.040214462015455e-01 -1.800774044376832e-02
4.120164486456878e-02 1.344532043930891e-01 -1.301507946034164e-02
1.464825813260897e-01 1.653869812624737e-01 1.684679136903135e-03
2.086921632189121e-02 1.223212910265919e-02 -2.279533397359276e-03
-2.167103301691628e-02 1.301913878811836e-02 -8.891115700414797e-03
0.000000000000000e+00 0.000000000000000e+00 0.000000000000000e+00
0.000000000000000e+00 0.000000000000000e+00 0.000000000000000e+00
6.918780996363119e-02 8.427617869119006e-02 -1.018360092340402e-02
1.288829715598068e-01 9.763239158308248e-02 -1.442269402053187e-02
4.094749889961482e-02 1.132907722653797e-01 -7.017147853474033e-03
1.246134609800359e-01 1.556908279230200e-01 -2.866442058680141e-03
3.540424579779132e-02 5.479763504700593e-02 4.398131165688337e-03
6.934930910742226e-03 8.169127161671938e-02 -1.748203893909098e-02
0.000000000000000e+00 0.000000000000000e+00 0.000000000000000e+00
0.000000000000000e+00 0.000000000000000e+00 0.000000000000000e+00
0.000000000000000e+00 0.000000000000000e+00 0.000000000000000e+00
0.000000000000000e+00 0.000000000000000e+00 0.000000000000000e+00
0.000000000000000e+00 0.000000000000000e+00 0.000000000000000e+00
0.000000000000000e+00 0.000000000000000e+00 0.000000000000000e+00
1.639591068035431e-02 4.701999434823697e-02 9.196895830862051e-03
1.473640613005919e-02 3.223188164296829e-02 1.442555403957567e-02
-1.070840738795825e-02 3.125643788290208e-02 -1.119155834425224e-04
-2.509626834382335e-02 4.449075231383835e-02 3.462633526129086e-03
0.000000000000000e+00 0.000000000000000e+00 0.000000000000000e+00
0.000000000000000e+00 0.000000000000000e+00 0.000000000000000e+00
1.379731435899993e-02 3.817997886325248e-03 2.068529220820554e-02
1.015693001438491e-04 1.543141544908109e-03 -7.403892475633527e-04
1.940829655482629e-02 1.451218329295092e-01 2.920887675907704e-02
2.263869776721727e-02 9.171221584211420e-02 3.543719318472326e-02
-1.755179966459080e-02 8.613350058760996e-02 4.957499414434642e-04
-3.998483025305898e-02 1.365945324193819e-01 -7.424323069731894e-04
2.740133143295133e-02 2.788282543176010e-02 4.293876865918308e-02
2.148766044241223e-03 2.104907371023867e-02 2.005915990339594e-03
1.508593114371846e-02 2.628343513810538e-01 4.485039205525922e-02
2.344600716136720e-02 1.735876984754267e-01 5.333440222525424e-02
-2.495200625646660e-02 1.652065089198923e-01 2.570552315777639e-04
-4.711973942342362e-02 2.507519446415556e-01 -7.461370965476573e-03
3.471822794370825e-02 8.393817245899096e-02 6.229568252102039e-02
-4.233682788802349e-03 7.656860350679574e-02 7.110063345100141e-03
3.846344661645011e-03 3.807008362710787e-01 5.175621500115278e-02
1.800674646817643e-02 2.611118116183778e-01 6.420534284200435e-02
-3.208986036272050e-02 2.478411025652476e-01 -2.380129145105934e-03
-5.904895208180117e-02 3.720844923765126e-01 -1.583192464225965e-02
3.123549878433437e-02 1.530220961420275e-01 7.165758524401956e-02
-1.010737856830152e-02 1.446741421553101e-01 9.704724748588446e-03
3.258287150406450e-01 1.847395771630155e-01 -4.531448628161733e-02
1.643436179130139e-01 1.175025611613564e-01 -2.074164926962975e-02
1.267771666216181e-01 9.866345471466585e-02 -2.916117695774612e-02
2.426428195098067e-01 1.455285572265394e-01 -4.951030049800929e-02
3.205834097291810e-01 3.053282026007445e-01 1.006826882425208e-02
8.301019366086115e-02 2.074847744242427e-01 -3.954978990141338e-04
6.772084328002335e-02 1.715961797490311e-01 -7.020528239286944e-03
2.259880896364540e-01 2.450471161536764e-01 -7.516793485065940e-03
2.439931184497917e-01 1.601512809117421e-01 -3.286096858323266e-02
1.475537227342722e-01 1.063462928386141e-01 -2.634420383914594e-02
1.822738447938620e-01 1.283048996528834e-01 -3.997601794631598e-02
2.861038419709799e-01 1.616555916699136e-01 -4.904384075120662e-02
3.194192681948811e-01 2.471451333788013e-01 -1.912839729022404e-02
1.234737913542191e-01 1.621457857412023e-01 -1.008912827152710e-02
9.629468897896884e-02 1.352365476599333e-01 -1.690099147631215e-02
2.347833564011640e-01 1.949356736298338e-01 -2.881614028594499e-02
1.993549151705634e-01 2.676285427039392e-01 6.800469692949857e-03
7.689801390979671e-02 1.879914442482267e-01 -6.299668058300698e-03
1.402080610587069e-01 2.182129293080373e-01 -4.308846994898120e-03
2.653387153706099e-01 2.741800636721189e-01 -2.206425451107722e-03
4.724167362545418e-02 2.923444676908648e-02 -6.811965989920628e-04
4.312688032641889e-02 3.106339484036565e-02 -1.074644499296300e-02
-1.375102359602559e-02 5.558655606753329e-02 -9.590766921396380e-03
-1.013223284933411e-02 5.435904045243851e-02 -6.278296630824332e-03
9.609217554346025e-02 7.061288402013646e-02 -8.952390459802190e-03
4.827839950152912e-02 3.207782269530168e-02 -7.823914211226307e-03
8.007829176933826e-02 6.415109753942673e-02 -1.917299431703081e-02
1.584374831183244e-02 3.969602221188860e-02 -5.783993102969064e-03
1.601483996711003e-02 3.988669770570007e-02 -8.205776760536142e-03
1.369426736756914e-02 1.285470098923447e-01 -5.339255631311131e-03
-1.130060772009665e-02 5.718744748785467e-02 -5.997433878938115e-03
1.551147721236093e-02 1.135615324446108e-01 -8.662734302571591e-03
0.000000000000000e+00 0.000000000000000e+00 0.000000000000000e+00
0.000000000000000e+00 0.000000000000000e+00 0.000000000000000e+00
0.000000000000000e+00 0.000000000000000e+00 0.000000000000000e+00
0.000000000000000e+00 0.000000000000000e+00 0.000000000000000e+00
1.730369355410296e-02 5.779199716576649e-03 3.147521344059637e-03
0.000000000000000e+00 0.000000000000000e+00 0.000000000000000e+00
1.752559658345205e-02 9.064347161174763e-03 -4.968574419945234e-03
0.000000000000000e+00 0.000000000000000e+00 0.000000000000000e+00
0.000000000000000e+00 0.000000000000000e+00 0.000000000000000e+00
-1.206621457580671e-02 1.088854914459299e-02 -6.633772597352330e-03
0.000000000000000e+00 0.000000000000000e+00 0.000000000000000e+00
-1.042477185238921e-02 1.386416245697756e-02 -3.938860774149689e-03
9.157625862474184e-02 7.635468508688843e-02 -2.939663026122393e-02
1.799523721996888e-01 1.098274642483090e-01 -5.103621196258430e-02
4.851708215023871e-02 1.332414911699654e-01 -5.171909870062277e-03
1.706606962910469e-01 1.859514100454483e-01 -2.233524635930513e-02
1.082376638624850e-01 8.879935055531997e-02 -2.940487838376356e-02
1.339433354277105e-01 9.793327163953103e-02 -3.942660265388806e-02
2.075572829089653e-01 1.288185599833822e-01 -5.054695001623431e-02
6.979504378453388e-02 1.044959616338887e-01 -1.747229148572528e-02
1.749849191003074e-01 1.475401097225032e-01 -3.702024436530224e-02
5.808202002617543e-02 1.543407477838986e-01 -6.243186566433278e-03
1.042717996950182e-01 1.678187092502431e-01 -8.782500093342090e-03
1.951960748389142e-01 2.147774002409745e-01 -1.465582717760798e-02
3.183900440654212e-02 2.742316786661499e-02 -1.313466413522743e-02
-7.699881886236631e-03 4.669540305982705e-02 -4.126887298365707e-03
3.752080471896640e-02 3.030718859857619e-02 -1.183016440633568e-02
5.756672308307659e-02 5.200141902927662e-02 -2.077257426620331e-02
1.172961205557612e-02 3.549810120263296e-02 -8.479873279217030e-03
-8.361976830711843e-03 5.129426679875913e-02 -6.428482230536756e-03
1.066931542676614e-02 8.919458125769604e-02 -5.065735324999461e-03
0.000000000000000e+00 0.000000000000000e+00 0.000000000000000e+00
0.000000000000000e+00 0.000000000000000e+00 0.000000000000000e+00
0.000000000000000e+00 0.000000000000000e+00 0.000000000000000e+00
1.373597395879691e-02 9.188985602855505e-03 -6.060226015161749e-03
0.000000000000000e+00 0.000000000000000e+00 0.000000000000000e+00
0.000000000000000e+00 0.000000000000000e+00 0.000000000000000e+00
-9.485786836732452e-03 1.401120952382789e-02 -2.334741486698798e-03
6.569747373187246e-02 4.288256841453197e-02 -3.220634584510643e-02
1.401060686635500e-01 6.898929751901860e-02 -5.324166982080661e-02
3.106782142238484e-02 9.176229323769643e-02 -5.483114411074794e-03
1.326496791140269e-01 1.355031269687640e-01 -2.817073445194967e-02
7.790369922764216e-02 6.144248893620913e-02 -3.025482895317369e-02
1.004560581686255e-01 5.949632907917668e-02 -4.147236618504144e-02
1.584340361606194e-01 8.972199165344162e-02 -5.181353628934540e-02
4.799398548958438e-02 6.714875786980393e-02 -1.855353990416827e-02
1.364308755959900e-01 1.021565224783003e-01 -4.073324549767444e-02
4.103580640003150e-02 1.119824140231223e-01 -5.410000116241271e-03
7.636252004904223e-02 1.199221135175195e-01 -1.349529449264556e-02
1.503923577168877e-01 1.588580485483896e-01 -2.622480541320048e-02
2.079599268306000e-02 8.529049106357421e-03 -1.724696264092593e-02
-7.350218851223158e-03 2.229262522263262e-02 4.120677100944353e-04
2.526410156576243e-02 2.107454924961271e-02 -1.469007615081279e-02
3.953157082133290e-02 2.467683065486409e-02 -2.498359348988925e-02
6.443304167630592e-03 1.419560552650358e-02 -8.431971404405878e-03
-7.353685049746256e-03 3.749561320792796e-02 -1.640722655430805e-03
3.143990459492015e-03 5.579363266731563e-02 -1.821606344233508e-03
0.000000000000000e+00 0.000000000000000e+00 0.000000000000000e+00
0.000000000000000e+00 0.000000000000000e+00 0.000000000000000e+00
0.000000000000000e+00 0.000000000000000e+00 0.000000000000000e+00
8.597445576056391e-03 1.258176683997419e-03 -9.789405101763727e-03
0.000000000000000e+00 0.000000000000000e+00 0.000000000000000e+00
0.000000000000000e+00 0.000000000000000e+00 0.000000000000000e+00
-4.283865978848995e-03 5.435864313757761e-03 1.717582843794696e-03
0.000000000000000e+00 0.000000000000000e+00 0.000000000000000e+00
0.000000000000000e+00 0.000000000000000e+00 0.000000000000000e+00
0.000000000000000e+00 0.000000000000000e+00 0.000000000000000e+00
0.000000000000000e+00 0.000000000000000e+00 0.000000000000000e+00
1.924025594774976e-02 6.385214051030415e-02 1.120508937242369e-02
2.968048683734339e-02 6.093728722266860e-02 1.913135655527459e-02
-2.762408146226975e-02 5.437341894758840e-02 9.018921092390265e-03
-4.580448557008947e-02 5.696004613294454e-02 1.456922141888979e-02
0.000000000000000e+00 0.000000000000000e+00 0.000000000000000e+00
0.000000000000000e+00 0.000000000000000e+00 0.000000000000000e+00
0.000000000000000e+00 0.000000000000000e+00 0.000000000000000e+00
0.000000000000000e+00 0.000000000000000e+00 0.000000000000000e+00
1.156993190100440e-02 1.579245106057300e-02 1.176413105942316e-03
1.660063541886183e-02 1.902197114487056e-02 7.030037583433864e-03
-1.408909737368222e-02 1.611921255586968e-02 2.230556073100002e-03
-2.252799431869046e-02 1.523939609068529e-02 9.207070753404390e-03
2.599785837893627e-02 6.580092125915055e-02 1.505017510087912e-02
1.074794260336378e-03 5.597692227477483e-02 1.455397772654699e-02
-3.747807037649802e-02 5.869178759376918e-02 1.058869993377696e-02
-1.310755200857555e-02 5.848625922318252e-02 1.294585912430637e-02
0.000000000000000e+00 0.000000000000000e+00 0.000000000000000e+00
0.000000000000000e+00 0.000000000000000e+00 0.000000000000000e+00
4.267604820772060e-02 3.853129074217436e-02 2.886044838413751e-02
-5.877168785345209e-03 3.099266530901040e-02 7.563878904632992e-03
0.000000000000000e+00 0.000000000000000e+00 0.000000000000000e+00
0.000000000000000e+00 0.000000000000000e+00 0.000000000000000e+00
0.000000000000000e+00 0.000000000000000e+00 0.000000000000000e+00
2.166889635898397e-02 9.429296534410016e-03 1.452970524252272e-02
-1.419272871039500e-03 4.633868459583765e-03 8.694685959276434e-04
3.327534957287713e-02 5.224235862704061e-02 2.291596115319193e-02
1.870307723387160e-02 3.335123225493378e-02 1.846440404318327e-02
-1.739983961916807e-02 4.397771393372126e-02 7.777346340904819e-03
1.742009635756362e-02 2.263073261788420e-01 3.946773327276543e-02
3.693741734461740e-02 2.017347447946426e-01 4.877367397969729e-02
-5.782601113657850e-02 1.864556674682527e-01 2.897927344369748e-02
-8.898994953682822e-02 2.077855540765873e-01 2.595998626960091e-02
2.134355477412071e-02 1.363856812676889e-01 2.506766434740281e-02
3.637909394800766e-02 1.232200171092837e-01 3.373467791857242e-02
-4.123471470724552e-02 1.122297522034309e-01 1.921486380238999e-02
-6.830416714461529e-02 1.236262028985930e-01 2.047120961236511e-02
2.879290082524995e-02 2.163771027037797e-01 4.426945716417991e-02
-1.109141866153629e-02 1.933427329348683e-01 3.813806752266130e-02
-7.394898949354393e-02 1.986748235074667e-01 2.749618542135176e-02
-3.515323080490160e-02 2.165806381977737e-01 3.312548405175392e-02
5.925010746407990e-02 1.631603140478107e-01 5.808672649225682e-02
-3.173323053365006e-02 1.482035989083286e-01 2.753561061519033e-02
5.573297700216944e-02 9.189143518883383e-02 4.433903063370272e-02
-1.612801608210788e-02 8.015322617178498e-02 1.687487428785977e-02
4.576611247497198e-02 1.839342308424503e-01 5.338889816145972e-02
1.427882599714453e-02 1.552739825015274e-01 4.291799994735011e-02
-4.529131972866880e-02 1.695183643612937e-01 2.841453721620081e-02
-1.289893252045121e-03 4.401148385974581e-01 6.401967620146429e-02
1.955770231801995e-02 3.900120615590193e-01 7.183363603743076e-02
-9.748240244565257e-02 3.678974813701129e-01 3.932171535370586e-02
-1.288523872711739e-01 4.125276087749951e-01 3.402330026594162e-02
1.002827749316330e-02 3.282322243741514e-01 5.291260668779356e-02
3.064761525443181e-02 2.920509722499025e-01 6.140334222113543e-02
-7.613507364365860e-02 2.727371883099409e-01 3.653783295273209e-02
-1.085266650622606e-01 3.057219477861041e-01 3.164191611169762e-02
9.516734426140025e-03 4.154264380945938e-01 6.844707333254844e-02
-3.928461512765147e-02 3.784208879446007e-01 5.526558642042047e-02
-1.107971658797374e-01 3.912504271038983e-01 3.796668885397431e-02
-6.601357230252976e-02 4.258653963312199e-01 4.846460716060960e-02
4.320846799975889e-02 3.368356737352243e-01 7.883669503641398e-02
-6.767562998624313e-02 3.166156838459828e-01 4.258053696227797e-02
5.386913104491739e-02 2.461489945188449e-01 6.980277289055957e-02
-4.933593456582012e-02 2.279854361635658e-01 3.532894970017078e-02
2.999936608368107e-02 3.638555661168570e-01 7.522689618183981e-02
-1.182470439106360e-02 3.265396879948333e-01 6.088654804922507e-02
-8.343650940653563e-02 3.429422641659847e-01 4.030136738720173e-02
-4.097069594309694e-02 6.725929168243315e-01 7.673353002976255e-02
-1.510926512305319e-02 5.957585279254822e-01 8.469504996524158e-02
-1.374741721628467e-01 5.715589873389615e-01 4.250778305537108e-02
-1.769957835387277e-01 6.530916889823863e-01 2.487144196944265e-02
-1.972274634117893e-02 5.572029420416628e-01 7.207337392467043e-02
3.465114667742880e-03 4.923939604219601e-01 7.978401167682216e-02
-1.184950974075604e-01 4.681578260027630e-01 4.059671213900235e-02
-1.505564537460806e-01 5.322256746615306e-01 3.067275404056689e-02
-2.713258627874336e-02 6.337999525567546e-01 8.143950252963364e-02
-7.612582145971361e-02 5.838488563559309e-01 6.360596534192420e-02
-1.571934889449637e-01 6.083600354806508e-01 3.513738890190981e-02
-1.081770696439262e-01 6.616310031611560e-01 5.219319727406953e-02
1.246003559589870e-02 5.311951153805118e-01 9.201730170484648e-02
-1.052434897666763e-01 5.088320005715269e-01 5.186848502672602e-02
2.876799404575782e-02 4.329274410172317e-01 8.621150193023122e-02
-8.651043861827819e-02 4.114015689812384e-01 4.758440935337212e-02
-2.057629108114772e-03 5.622065095342018e-01 8.820013980851114e-02
-4.645270025238563e-02 5.198529872732320e-01 7.190059440957994e-02
-1.203260253733389e-01 5.394151317456014e-01 4.802398416226659e-02
3.316521553052902e-01 1.911789301572678e-01 -4.500059525323598e-02
1.658541286374370e-01 1.234238107283753e-01 -1.984384791890532e-02
1.288790378016229e-01 1.024080840534173e-01 -2.919239941685867e-02
2.475311994017582e-01 1.508321516474914e-01 -5.054291241014920e-02
3.256827259753692e-01 3.133067224969387e-01 8.775717980735349e-03
8.270684377718797e-02 2.156257155565755e-01 2.247475687674557e-03
6.940655223470282e-02 1.764192901415625e-01 -7.800846034079683e-03
2.306194886111214e-01 2.525581067173767e-01 -7.514721619870683e-03
2.486102971107907e-01 1.660716315794477e-01 -3.315740317449960e-02
1.504875080099650e-01 1.103196180457111e-01 -2.678972849273759e-02
1.858837121991885e-01 1.330693621990306e-01 -4.082684635575609e-02
2.898932413356243e-01 1.685123648714166e-01 -4.858826259928668e-02
3.228119463678209e-01 2.533804902956586e-01 -1.994091159426937e-02
1.261961659354649e-01 1.670982547392309e-01 -1.043077269759420e-02
9.838108019103760e-02 1.392809478021741e-01 -1.756799947687960e-02
2.384943702845026e-01 2.008676432217471e-01 -2.981779928674524e-02
2.020946681572285e-01 2.749264548213270e-01 7.184244712141977e-03
7.803976744335103e-02 1.938890291171106e-01 -6.121146620796356e-03
1.423544450364485e-01 2.248321950737609e-01 -3.444719868672704e-03
2.685384769553749e-01 2.828376776242352e-01 -9.886956192507630e-04
1.928738586995602e-01 1.984524254396795e-01 -1.978294020877048e-02
2.188182250953859e-01 1.460916711906535e-01 -3.910545050727376e-02
1.695725624688646e-01 2.479501493899117e-01 -2.569102556300554e-03
2.794533450585127e-01 2.252055800384259e-01 -2.705905352612384e-02
1.134593454656336e-01 1.520476404618319e-01 -1.547684114486787e-02
2.228684752347119e-01 2.213237209693270e-01 -1.328548137177150e-02
1.639551024403998e-01 1.784449238633280e-01 -2.196816363229872e-02
4.905640089318580e-02 3.097931650327799e-02 -1.161532469469361e-03
4.437295819640593e-02 3.212047598963819e-02 -1.085839119454061e-02
-1.478089176349789e-02 5.847706831372215e-02 -8.633347479308441e-03
-1.133767199376192e-02 5.635129650213815e-02 -5.417695123485381e-03
9.802992060169873e-02 7.491986860047123e-02 -8.794575801966041e-03
4.945077375755083e-02 3.297442398694897e-02 -7.768631332003748e-03
8.131177644529451e-02 6.713092141185445e-02 -1.937090496995633e-02
1.676466160011059e-02 4.302817472831776e-02 -5.713198637115197e-03
1.643912078459176e-02 4.263642583115779e-02 -8.528255611317421e-03
1.546425296081635e-02 1.328532056081897e-01 -5.635929858333760e-03
-1.183972438885376e-02 5.937019525523113e-02 -6.932891415602268e-03
1.600788131058626e-02 1.171455151980473e-01 -8.781707391676101e-03
5.335733762061470e-02 9.664957585552247e-02 -1.103196875019749e-02
9.285250121173368e-02 7.059525937721473e-02 -1.595797276053664e-02
1.550253252280092e-02 1.255206714384848e-01 -6.035530411553854e-03
1.821880211060938e-02 4.438461454671373e-02 -7.065499591196638e-03
5.554969605114246e-02 1.023901449329764e-01 -7.431164236864488e-03
4.791110938668219e-02 9.058694988302825e-02 -1.323045143778127e-02
0.000000000000000e+00 0.000000000000000e+00 0.000000000000000e+00
0.000000000000000e+00 0.000000000000000e+00 0.000000000000000e+00
0.000000000000000e+00 0.000000000000000e+00 0.000000000000000e+00
0.000000000000000e+00 0.000000000000000e+00 0.000000000000000e+00
1.861172287981237e-02 6.490089642700595e-03 3.656355766174480e-03
0.000000000000000e+00 0.000000000000000e+00 0.000000000000000e+00