<?xml version="1.0" ?> 
<!-- 
# vtk DataFile Version 3.0
-->
<VTKFile type="UnstructuredGrid" version="0.1" compressor="vtkZLibDataCompressor" byte_order="LittleEndian">
  <UnstructuredGrid>
    <FieldData>
      <DataArray type="Float64" Name="TIME" NumberOfTuples="1" format="ascii">
1.000000010000000e+00 
      </DataArray>
    </FieldData>

    <Piece NumberOfPoints="585" NumberOfCells="0" >
      <Points>
        <DataArray type="Float64" NumberOfComponents="3" format="ascii">
5.000000000000000e-01 8.660254037839999e-01 1.000000000000000e+00
0.000000000000000e+00 1.000000000000000e+00 1.000000000000000e+00
0.000000000000000e+00 1.000000000000000e+00 1.500000000000000e+00
5.000000000000000e-01 8.660254037839999e-01 1.500000000000000e+00
8.660254037839999e-01 5.000000000000000e-01 1.000000000000000e+00
5.000000000000000e-01 8.660254037839999e-01 1.000000000000000e+00
5.000000000000000e-01 8.660254037839999e-01 1.500000000000000e+00
8.660254037839999e-01 5.000000000000000e-01 1.500000000000000e+00
5.000000000000000e-01 8.660254037839999e-01 5.000000000000000e-01
0.000000000000000e+00 1.000000000000000e+00 5.000000000000000e-01
0.000000000000000e+00 1.000000000000000e+00 1.000000000000000e+00
5.000000000000000e-01 8.660254037839999e-01 1.000000000000000e+00
8.660254037839999e-01 5.000000000000000e-01 5.000000000000000e-01
5.000000000000000e-01 8.660254037839999e-01 5.000000000000000e-01
5.000000000000000e-01 8.660254037839999e-01 1.000000000000000e+00
8.660254037839999e-01 5.000000000000000e-01 1.000000000000000e+00
1.000000000000000e+00 0.000000000000000e+00 5.000000000000000e-01
8.660254037839999e-01 5.000000000000000e-01 5.000000000000000e-01
8.660254037839999e-01 5.000000000000000e-01 1.000000000000000e+00
1.000000000000000e+00 0.000000000000000e+00 1.000000000000000e+00
8.660254037839999e-01 5.000000000000000e-01 0.000000000000000e+00
5.000000000000000e-01 8.660254037839999e-01 0.000000000000000e+00
5.000000000000000e-01 8.660254037839999e-01 5.000000000000000e-01
8.660254037839999e-01 5.000000000000000e-01 5.000000000000000e-01
1.000000000000000e+00 0.000000000000000e+00 0.000000000000000e+00
8.660254037839999e-01 5.000000000000000e-01 0.000000000000000e+00
8.660254037839999e-01 5.000000000000000e-01 5.000000000000000e-01
1.000000000000000e+00 0.000000000000000e+00 5.000000000000000e-01
1.500000000000000e+00 3.000000000000000e-01 2.500000000000000e+00
1.500000000000000e+00 3.000000000000000e-01 3.000000000000000e+00
2.000000000000000e+00 3.000000000000000e-01 3.000000000000000e+00
2.000000000000000e+00 3.000000000000000e-01 2.500000000000000e+00
1.500000000000000e+00 3.000000000000000e-01 3.000000000000000e+00
1.500000000000000e+00 3.000000000000000e-01 3.500000000000000e+00
2.000000000000000e+00 3.000000000000000e-01 3.500000000000000e+00
2.000000000000000e+00 3.000000000000000e-01 3.000000000000000e+00
1.000000000000000e+00 3.000000000000000e-01 2.500000000000000e+00
1.000000000000000e+00 3.000000000000000e-01 3.000000000000000e+00
1.500000000000000e+00 3.000000000000000e-01 3.000000000000000e+00
1.500000000000000e+00 3.000000000000000e-01 2.500000000000000e+00
1.000000000000000e+00 3.000000000000000e-01 3.000000000000000e+00
1.000000000000000e+00 3.000000000000000e-01 3.500000000000000e+00
1.500000000000000e+00 3.000000000000000e-01 3.500000000000000e+00
1.500000000000000e+00 3.000000000000000e-01 3.000000000000000e+00
5.000000000000000e-01 3.000000000000000e-01 2.500000000000000e+00
5.000000000000000e-01 3.000000000000000e-01 3.000000000000000e+00
1.000000000000000e+00 3.000000000000000e-01 3.000000000000000e+00
1.000000000000000e+00 3.000000000000000e-01 2.500000000000000e+00
5.000000000000000e-01 3.000000000000000e-01 3.000000000000000e+00
5.000000000000000e-01 3.000000000000000e-01 3.500000000000000e+00
1.000000000000000e+00 3.000000000000000e-01 3.500000000000000e+00
1.000000000000000e+00 3.000000000000000e-01 3.000000000000000e+00
0.000000000000000e+00 3.000000000000000e-01 2.500000000000000e+00
0.000000000000000e+00 3.000000000000000e-01 3.000000000000000e+00
5.000000000000000e-01 3.000000000000000e-01 3.000000000000000e+00
5.000000000000000e-01 3.000000000000000e-01 2.500000000000000e+00
0.000000000000000e+00 3.000000000000000e-01 3.000000000000000e+00
0.000000000000000e+00 3.000000000000000e-01 3.500000000000000e+00
5.000000000000000e-01 3.000000000000000e-01 3.500000000000000e+00
5.000000000000000e-01 3.000000000000000e-01 3.000000000000000e+00
5.000000000000000e-01 8.660254037839999e-01 6.000000000000000e+00
0.000000000000000e+00 1.000000000000000e+00 6.000000000000000e+00
0.000000000000000e+00 1.000000000000000e+00 6.500000000000000e+00
5.000000000000000e-01 8.660254037839999e-01 6.500000000000000e+00
2.588190451030000e-01 9.659258262890000e-01 6.000000000000000e+00
0.000000000000000e+00 1.000000000000000e+00 6.250000000000000e+00
2.588190451030000e-01 9.659258262890000e-01 6.500000000000000e+00
5.000000000000000e-01 8.660254037839999e-01 6.250000000000000e+00
8.660254037839999e-01 5.000000000000000e-01 6.000000000000000e+00
5.000000000000000e-01 8.660254037839999e-01 6.000000000000000e+00
5.000000000000000e-01 8.660254037839999e-01 6.500000000000000e+00
8.660254037839999e-01 5.000000000000000e-01 6.500000000000000e+00
7.071067811870000e-01 7.071067811870000e-01 6.000000000000000e+00
5.000000000000000e-01 8.660254037839999e-01 6.250000000000000e+00
7.071067811870000e-01 7.071067811870000e-01 6.500000000000000e+00
8.660254037839999e-01 5.000000000000000e-01 6.250000000000000e+00
5.000000000000000e-01 8.660254037839999e-01 5.500000000000000e+00
0.000000000000000e+00 1.000000000000000e+00 5.500000000000000e+00
0.000000000000000e+00 1.000000000000000e+00 6.000000000000000e+00
5.000000000000000e-01 8.660254037839999e-01 6.000000000000000e+00
2.588190451030000e-01 9.659258262890000e-01 5.500000000000000e+00
0.000000000000000e+00 1.000000000000000e+00 5.750000000000000e+00
2.588190451030000e-01 9.659258262890000e-01 6.000000000000000e+00
5.000000000000000e-01 8.660254037839999e-01 5.750000000000000e+00
8.660254037839999e-01 5.000000000000000e-01 5.500000000000000e+00
5.000000000000000e-01 8.660254037839999e-01 5.500000000000000e+00
5.000000000000000e-01 8.660254037839999e-01 6.000000000000000e+00
8.660254037839999e-01 5.000000000000000e-01 6.000000000000000e+00
7.071067811870000e-01 7.071067811870000e-01 5.500000000000000e+00
5.000000000000000e-01 8.660254037839999e-01 5.750000000000000e+00
7.071067811870000e-01 7.071067811870000e-01 6.000000000000000e+00
8.660254037839999e-01 5.000000000000000e-01 5.750000000000000e+00
1.000000000000000e+00 0.000000000000000e+00 5.500000000000000e+00
8.660254037839999e-01 5.000000000000000e-01 5.500000000000000e+00
8.660254037839999e-01 5.000000000000000e-01 6.000000000000000e+00
1.000000000000000e+00 0.000000000000000e+00 6.000000000000000e+00
9.659258262890000e-01 2.588190451030000e-01 5.500000000000000e+00
8.660254037839999e-01 5.000000000000000e-01 5.750000000000000e+00
9.659258262890000e-01 2.588190451030000e-01 6.000000000000000e+00
1.000000000000000e+00 0.000000000000000e+00 5.750000000000000e+00
8.660254037839999e-01 5.000000000000000e-01 5.000000000000000e+00
5.000000000000000e-01 8.660254037839999e-01 5.000000000000000e+00
5.000000000000000e-01 8.660254037839999e-01 5.500000000000000e+00
8.660254037839999e-01 5.000000000000000e-01 5.500000000000000e+00
7.071067811870000e-01 7.071067811870000e-01 5.000000000000000e+00
5.000000000000000e-01 8.660254037839999e-01 5.250000000000000e+00
7.071067811870000e-01 7.071067811870000e-01 5.500000000000000e+00
8.660254037839999e-01 5.000000000000000e-01 5.250000000000000e+00
1.000000000000000e+00 0.000000000000000e+00 5.000000000000000e+00
8.660254037839999e-01 5.000000000000000e-01 5.000000000000000e+00
8.660254037839999e-01 5.000000000000000e-01 5.500000000000000e+00
1.000000000000000e+00 0.000000000000000e+00 5.500000000000000e+00
9.659258262890000e-01 2.588190451030000e-01 5.000000000000000e+00
8.660254037839999e-01 5.000000000000000e-01 5.250000000000000e+00
9.659258262890000e-01 2.588190451030000e-01 5.500000000000000e+00
1.000000000000000e+00 0.000000000000000e+00 5.250000000000000e+00
1.500000000000000e+00 3.000000000000000e-01 7.500000000000000e+00
1.500000000000000e+00 3.000000000000000e-01 8.000000000000000e+00
2.000000000000000e+00 3.000000000000000e-01 8.000000000000000e+00
2.000000000000000e+00 3.000000000000000e-01 7.500000000000000e+00
1.500000000000000e+00 3.000000000000000e-01 7.750000000000000e+00
1.750000000000000e+00 3.000000000000000e-01 8.000000000000000e+00
2.000000000000000e+00 3.000000000000000e-01 7.750000000000000e+00
1.750000000000000e+00 3.000000000000000e-01 7.500000000000000e+00
1.500000000000000e+00 3.000000000000000e-01 8.000000000000000e+00
1.500000000000000e+00 3.000000000000000e-01 8.500000000000000e+00
2.000000000000000e+00 3.000000000000000e-01 8.500000000000000e+00
2.000000000000000e+00 3.000000000000000e-01 8.000000000000000e+00
1.500000000000000e+00 3.000000000000000e-01 8.250000000000000e+00
1.750000000000000e+00 3.000000000000000e-01 8.500000000000000e+00
2.000000000000000e+00 3.000000000000000e-01 8.250000000000000e+00
1.750000000000000e+00 3.000000000000000e-01 8.000000000000000e+00
1.000000000000000e+00 3.000000000000000e-01 7.500000000000000e+00
1.000000000000000e+00 3.000000000000000e-01 8.000000000000000e+00
1.500000000000000e+00 3.000000000000000e-01 8.000000000000000e+00
1.500000000000000e+00 3.000000000000000e-01 7.500000000000000e+00
1.000000000000000e+00 3.000000000000000e-01 7.750000000000000e+00
1.250000000000000e+00 3.000000000000000e-01 8.000000000000000e+00
1.500000000000000e+00 3.000000000000000e-01 7.750000000000000e+00
1.250000000000000e+00 3.000000000000000e-01 7.500000000000000e+00
1.000000000000000e+00 3.000000000000000e-01 8.000000000000000e+00
1.000000000000000e+00 3.000000000000000e-01 8.500000000000000e+00
1.500000000000000e+00 3.000000000000000e-01 8.500000000000000e+00
1.500000000000000e+00 3.000000000000000e-01 8.000000000000000e+00
[...]
  <PointData>
        <DataArray type="Int32" Name="coupling_id" format="ascii">
1
1
1
1
1
1
1
1
1
1
1
1
1
1
1
1
1
1
1
1
1
1
1
1
1
1
1
1
2
2
2
2
2
2
2
2
2
2
2
2
2
2
2
2
2
2
2
2
2
2
2
2
2
2
2
2
2
2
2
2
3
3
3
3
3
3
3
3
3
3
3
3
3
3
3
3
3
3
3
3
3
3
3
3
3
3
3
3
3
3
3
3
3
3
3
3
3
3
3
3
3
3
3
3
3
3
3
3
3
3
3
3
3
3
3
3
4
4
4
4
4
4
4
4
4
4
4
4
4
4
4
4
4
4
4
4
4
4
4
4
4
4
4
4
4
4
4
4
4
4
4
4
4
4
4
4
4
4
4
4
4
4
4
4
4
4
4
4
4
4
4
4
4
4
4
4
4
4
4
4
5
5
5
5
5
5
5
5
5
5
5
5
5
5
5
5
5
5
5
5
5
5
5
5
5
5
5
5
5
5
5
5
5
5
5
5
5
5
5
5
5
5
5
5
5
5
5
5
5
5
5
5
5
5
5
5
5
5
5
5
5
5
5
6
6
6
6
6
6
6
6
6
6
6
6
6
6
6
6
6
6
6
6
6
6
6
6
6
6
6
6
6
6
6
6
6
6
6
6
6
6
6
6
6
6
6
6
6
6
6
6
6
6
6
6
6
6
6
6
6
6
6
6
6
6
6
6
6
6
6
6
6
6
6
6
7
7
7
7
7
7
7
7
7
7
7
7
7
7
7
7
7
7
7
7
7
7
7
7
7
7
7
7
7
7
7
7
7
7
7
7
7
7
7
7
7
7
8
8
8
8
8
8
8
8
8
8
8
8
8
8
8
8
8
8
8
8
8
8
8
8
8
8
8
8
8
8
8
8
8
8
8
8
8
8
8
8
8
8
8
8
8
8
8
8
9
9
9
9
9
9
9
9
9
9
9
9
9
9
9
9
9
9
9
9
9
9
9
9
9
9
9
9
9
9
9
9
9
9
9
9
9
9
9
9
9
9
9
9
9
9
9
9
9
9
9
9
9
9
9
9
9
9
9
9
9
9
9
9
9
9
9
9
9
9
9
9
9
9
9
9
9
9
9
9
9
9
9
9
10
10
10
10
10
10
10
10
10
10
10
10
10
10
10
10
10
10
10
10
10
10
10
10
10
10
10
10
10
10
10
10
10
10
10
10
10
10
10
10
10
10
10
10
10
10
10
10
10
10
10
10
10
10
10
10
10
10
10
10
10
10
10
10
10
10
10
10
10
10
10
10
10
10
10
10
10
10
10
10
10
10
10
10
10
10
10
10
10
10
10
10
10
10
10
10
        </DataArray>
        <DataArray type="Float64" Name="displacement" NumberOfComponents="3" format="ascii">
-2.167103301691370e-02 1.301913878810290e-02 -8.891115700414565e-03
0.000000000000000e+00 0.000000000000000e+00 0.000000000000000e+00
0.000000000000000e+00 0.000000000000000e+00 0.000000000000000e+00
6.934930910747816e-03 8.169127161671863e-02 -1.748203893909417e-02
4.120164486456190e-02 1.344532043930451e-01 -1.301507946033986e-02
-2.167103301691370e-02 1.301913878810290e-02 -8.891115700414565e-03
6.934930910747816e-03 8.169127161671863e-02 -1.748203893909417e-02
4.094749889961202e-02 1.132907722653604e-01 -7.017147853472627e-03
-3.217284041670376e-03 4.148087067410566e-02 -9.255913905927615e-03
0.000000000000000e+00 0.000000000000000e+00 0.000000000000000e+00
0.000000000000000e+00 0.000000000000000e+00 0.000000000000000e+00
-2.167103301691370e-02 1.301913878810290e-02 -8.891115700414565e-03
2.526301140684939e-02 9.995845310383422e-02 -1.031558058017634e-02
-3.217284041670376e-03 4.148087067410566e-02 -9.255913905927615e-03
-2.167103301691370e-02 1.301913878810290e-02 -8.891115700414565e-03
4.120164486456190e-02 1.344532043930451e-01 -1.301507946033986e-02
1.917075907727128e-01 2.131208772372489e-01 -2.387496109902632e-03
2.526301140684939e-02 9.995845310383422e-02 -1.031558058017634e-02
4.120164486456190e-02 1.344532043930451e-01 -1.301507946033986e-02
1.464825813260409e-01 1.653869812624067e-01 1.684679136915834e-03
5.737549105617379e-02 1.357436612222186e-01 -7.950572848441534e-03
-1.603789763411817e-02 2.160164923466745e-02 -1.342216157739327e-02
-3.217284041670376e-03 4.148087067410566e-02 -9.255913905927615e-03
2.526301140684939e-02 9.995845310383422e-02 -1.031558058017634e-02
2.479246392041510e-01 2.170557463150390e-01 -4.405976714163366e-04
5.737549105617379e-02 1.357436612222186e-01 -7.950572848441534e-03
2.526301140684939e-02 9.995845310383422e-02 -1.031558058017634e-02
1.917075907727128e-01 2.131208772372489e-01 -2.387496109902632e-03
-4.233682788806759e-03 7.656860350681993e-02 7.110063345103779e-03
-2.495200625648542e-02 1.652065089199700e-01 2.570552315726005e-04
-3.208986036274997e-02 2.478411025653746e-01 -2.380129145116872e-03
-1.010737856831345e-02 1.446741421553702e-01 9.704724748590188e-03
-2.495200625648542e-02 1.652065089199700e-01 2.570552315726005e-04
-4.711973942346015e-02 2.507519446416905e-01 -7.461370965491820e-03
-5.904895208185068e-02 3.720844923767044e-01 -1.583192464228311e-02
-3.208986036274997e-02 2.478411025653746e-01 -2.380129145116872e-03
2.148766044243411e-03 2.104907371024045e-02 2.005915990342277e-03
-1.755179966460196e-02 8.613350058764885e-02 4.957499414421918e-04
-2.495200625648542e-02 1.652065089199700e-01 2.570552315726005e-04
-4.233682788806759e-03 7.656860350681993e-02 7.110063345103779e-03
-1.755179966460196e-02 8.613350058764885e-02 4.957499414421918e-04
-3.998483025308486e-02 1.365945324194524e-01 -7.424323069789018e-04
-4.711973942346015e-02 2.507519446416905e-01 -7.461370965491820e-03
-2.495200625648542e-02 1.652065089199700e-01 2.570552315726005e-04
1.015693001444884e-04 1.543141544907256e-03 -7.403892475634777e-04
-1.070840738796408e-02 3.125643788291516e-02 -1.119155834437002e-04
-1.755179966460196e-02 8.613350058764885e-02 4.957499414421918e-04
2.148766044243411e-03 2.104907371024045e-02 2.005915990342277e-03
-1.070840738796408e-02 3.125643788291516e-02 -1.119155834437002e-04
-2.509626834383771e-02 4.449075231386113e-02 3.462633526129633e-03
-3.998483025308486e-02 1.365945324194524e-01 -7.424323069789018e-04
-1.755179966460196e-02 8.613350058764885e-02 4.957499414421918e-04
0.000000000000000e+00 0.000000000000000e+00 0.000000000000000e+00
0.000000000000000e+00 0.000000000000000e+00 0.000000000000000e+00
-1.070840738796408e-02 3.125643788291516e-02 -1.119155834437002e-04
1.015693001444884e-04 1.543141544907256e-03 -7.403892475634777e-04
0.000000000000000e+00 0.000000000000000e+00 0.000000000000000e+00
0.000000000000000e+00 0.000000000000000e+00 0.000000000000000e+00
-2.509626834383771e-02 4.449075231386113e-02 3.462633526129633e-03
-1.070840738796408e-02 3.125643788291516e-02 -1.119155834437002e-04
-7.699881886224669e-03 4.669540305977538e-02 -4.126887298355086e-03
0.000000000000000e+00 0.000000000000000e+00 0.000000000000000e+00
0.000000000000000e+00 0.000000000000000e+00 0.000000000000000e+00
-7.350218851212453e-03 2.229262522259923e-02 4.120677100978298e-04
-9.485786836721272e-03 1.401120952381341e-02 -2.334741486694547e-03
0.000000000000000e+00 0.000000000000000e+00 0.000000000000000e+00
-4.283865978844004e-03 5.435864313749761e-03 1.717582843793863e-03
-7.353685049735104e-03 3.749561320788142e-02 -1.640722655422699e-03
4.851708215019512e-02 1.332414911698054e-01 -5.171909870051117e-03
-7.699881886224669e-03 4.669540305977538e-02 -4.126887298355086e-03
-7.350218851212453e-03 2.229262522259923e-02 4.120677100978298e-04
3.106782142234743e-02 9.176229323756024e-02 -5.483114411061862e-03
1.066931542676242e-02 8.919458125759294e-02 -5.065735324987664e-03
-7.353685049735104e-03 3.749561320788142e-02 -1.640722655422699e-03
3.143990459490764e-03 5.579363266723369e-02 -1.821606344228677e-03
4.103580639998983e-02 1.119824140229733e-01 -5.410000116230052e-03
-1.013223284931652e-02 5.435904045238327e-02 -6.278296630818581e-03
0.000000000000000e+00 0.000000000000000e+00 0.000000000000000e+00
0.000000000000000e+00 0.000000000000000e+00 0.000000000000000e+00
-7.699881886224669e-03 4.669540305977538e-02 -4.126887298355086e-03
-1.042477185237567e-02 1.386416245696231e-02 -3.938860774146846e-03
0.000000000000000e+00 0.000000000000000e+00 0.000000000000000e+00
-9.485786836721272e-03 1.401120952381341e-02 -2.334741486694547e-03
-8.361976830697171e-03 5.129426679870674e-02 -6.428482230525390e-03
6.772084327997685e-02 1.715961797488579e-01 -7.020528239271684e-03
-1.013223284931652e-02 5.435904045238327e-02 -6.278296630818581e-03
-7.699881886224669e-03 4.669540305977538e-02 -4.126887298355086e-03
4.851708215019512e-02 1.332414911698054e-01 -5.171909870051117e-03
1.551147721235768e-02 1.135615324444973e-01 -8.662734302557595e-03
-8.361976830697171e-03 5.129426679870674e-02 -6.428482230525390e-03
1.066931542676242e-02 8.919458125759294e-02 -5.065735324987664e-03
5.808202002612950e-02 1.543407477837302e-01 -6.243186566420533e-03
2.259880896362720e-01 2.450471161534142e-01 -7.516793485055295e-03
6.772084327997685e-02 1.715961797488579e-01 -7.020528239271684e-03
4.851708215019512e-02 1.332414911698054e-01 -5.171909870051117e-03
1.706606962908643e-01 1.859514100452088e-01 -2.233524635928763e-02
1.402080610585996e-01 2.182129293078117e-01 -4.308846994880433e-03
5.808202002612950e-02 1.543407477837302e-01 -6.243186566420533e-03
1.042717996949136e-01 1.678187092500346e-01 -8.782500093328593e-03
1.951960748387300e-01 2.147774002407230e-01 -1.465582717759517e-02
8.301019366082485e-02 2.074847744240598e-01 -3.954978990039493e-04
-1.375102359600050e-02 5.558655606748109e-02 -9.590766921386162e-03
-1.013223284931652e-02 5.435904045238327e-02 -6.278296630818581e-03
6.772084327997685e-02 1.715961797488579e-01 -7.020528239271684e-03
1.369426736757895e-02 1.285470098922281e-01 -5.339255631304773e-03
-1.130060772007491e-02 5.718744748779869e-02 -5.997433878932590e-03
1.551147721235768e-02 1.135615324444973e-01 -8.662734302557595e-03
7.689801390975481e-02 1.879914442480487e-01 -6.299668058283636e-03
3.205834097290250e-01 3.053282026004784e-01 1.006826882425838e-02
8.301019366082485e-02 2.074847744240598e-01 -3.954978990039493e-04
6.772084327997685e-02 1.715961797488579e-01 -7.020528239271684e-03
2.259880896362720e-01 2.450471161534142e-01 -7.516793485055295e-03
1.993549151704765e-01 2.676285427037060e-01 6.800469692953115e-03
7.689801390975481e-02 1.879914442480487e-01 -6.299668058283636e-03
1.402080610585996e-01 2.182129293078117e-01 -4.308846994880433e-03
2.653387153704339e-01 2.741800636718553e-01 -2.206425451096727e-03
-6.767562998645715e-02 3.166156838466114e-01 4.258053696236175e-02
-9.748240244588802e-02 3.678974813707177e-01 3.932171535377904e-02
-1.374741721631716e-01 5.715589873398392e-01 4.250778305547875e-02
-1.052434897669778e-01 5.088320005724556e-01 5.186848502683450e-02
-8.343650940676328e-02 3.429422641665985e-01 4.030136738727741e-02
-1.184950974078420e-01 4.681578260035024e-01 4.059671213908800e-02
-1.203260253736522e-01 5.394151317465072e-01 4.802398416237441e-02
-8.651043861853447e-02 4.114015689820219e-01 4.758440935347075e-02
-9.748240244588802e-02 3.678974813707177e-01 3.932171535377904e-02
-1.288523872714356e-01 4.125276087755492e-01 3.402330026600708e-02
-1.769957835390867e-01 6.530916889831588e-01 2.487144196952329e-02
-1.374741721631716e-01 5.715589873398392e-01 4.250778305547875e-02
-1.107971658799880e-01 3.912504271044815e-01 3.796668885404308e-02
-1.505564537463953e-01 5.322256746621947e-01 3.067275404063885e-02
-1.571934889453028e-01 6.083600354814829e-01 3.513738890200635e-02
-1.184950974078420e-01 4.681578260035024e-01 4.059671213908800e-02
-3.173323053377097e-02 1.482035989086372e-01 2.753561061524490e-02
-5.782601113671704e-02 1.864556674685745e-01 2.897927344375262e-02
-9.748240244588802e-02 3.678974813707177e-01 3.932171535377904e-02
-6.767562998645715e-02 3.166156838466114e-01 4.258053696236175e-02
-4.529131972879830e-02 1.695183643616136e-01 2.841453721625609e-02
-7.613507364384442e-02 2.727371883104062e-01 3.653783295279744e-02
-8.343650940676328e-02 3.429422641665985e-01 4.030136738727741e-02
-4.933593456599095e-02 2.279854361640307e-01 3.532894970023825e-02
-5.782601113671704e-02 1.864556674685745e-01 2.897927344375262e-02
-8.898994953700579e-02 2.077855540768792e-01 2.595998626964224e-02
-1.288523872714356e-01 4.125276087755492e-01 3.402330026600708e-02
-9.748240244588802e-02 3.678974813707177e-01 3.932171535377904e-02
-7.394898949370410e-02 1.986748235077779e-01 2.749618542140198e-02
-1.085266650624768e-01 3.057219477865328e-01 3.164191611175227e-02
-1.107971658799880e-01 3.912504271044815e-01 3.796668885404308e-02
-7.613507364384442e-02 2.727371883104062e-01 3.653783295279744e-02
-5.877168785370757e-03 3.099266530907729e-02 7.563878904650601e-03
-2.762408146232948e-02 5.437341894767833e-02 9.018921092412313e-03
-5.782601113671704e-02 1.864556674685745e-01 2.897927344375262e-02
-3.173323053377097e-02 1.482035989086372e-01 2.753561061524490e-02
-1.739983961920938e-02 4.397771393380195e-02 7.777346340924751e-03
-4.123471470733886e-02 1.122297522036242e-01 1.921486380243032e-02
-4.529131972879830e-02 1.695183643616136e-01 2.841453721625609e-02
-1.612801608217351e-02 8.015322617195464e-02 1.687487428789236e-02
-2.762408146232948e-02 5.437341894767833e-02 9.018921092412313e-03
-4.580448557017192e-02 5.696004613301286e-02 1.456922141891326e-02
-8.898994953700579e-02 2.077855540768792e-01 2.595998626964224e-02
-5.782601113671704e-02 1.864556674685745e-01 2.897927344375262e-02
-3.747807037657280e-02 5.869178759385174e-02 1.058869993379830e-02
-6.830416714474830e-02 1.236262028987602e-01 2.047120961239735e-02
-7.394898949370410e-02 1.986748235077779e-01 2.749618542140198e-02
-4.123471470733886e-02 1.122297522036242e-01 1.921486380243032e-02
0.000000000000000e+00 0.000000000000000e+00 0.000000000000000e+00
0.000000000000000e+00 0.000000000000000e+00 0.000000000000000e+00
-2.762408146232948e-02 5.437341894767833e-02 9.018921092412313e-03
-5.877168785370757e-03 3.099266530907729e-02 7.563878904650601e-03
0.000000000000000e+00 0.000000000000000e+00 0.000000000000000e+00
-1.408909737371103e-02 1.611921255589488e-02 2.230556073101297e-03
-1.739983961920938e-02 4.397771393380195e-02 7.777346340924751e-03
-1.419272871044652e-03 4.633868459593349e-03 8.694685959307336e-04
0.000000000000000e+00 0.000000000000000e+00 0.000000000000000e+00
0.000000000000000e+00 0.000000000000000e+00 0.000000000000000e+00
-4.580448557017192e-02 5.696004613301286e-02 1.456922141891326e-02
-2.762408146232948e-02 5.437341894767833e-02 9.018921092412313e-03
0.000000000000000e+00 0.000000000000000e+00 0.000000000000000e+00
-2.252799431872576e-02 1.523939609069813e-02 9.207070753420865e-03
-3.747807037657280e-02 5.869178759385174e-02 1.058869993379830e-02
-1.408909737371103e-02 1.611921255589488e-02 2.230556073101297e-03
-7.598502187223521e-03 4.844534147271007e-02 -4.463374341129978e-03
0.000000000000000e+00 0.000000000000000e+00 0.000000000000000e+00
0.000000000000000e+00 0.000000000000000e+00 0.000000000000000e+00
-7.742140660651542e-03 2.303730229182555e-02 3.744024371030719e-04
-9.837742961830737e-03 1.495604158799813e-02 -2.488614220387930e-03
0.000000000000000e+00 0.000000000000000e+00 0.000000000000000e+00
-4.511529488180954e-03 5.617757086263331e-03 1.551394391999139e-03
-7.502673990449349e-03 3.842744924732455e-02 -1.898181745691119e-03
-6.915976792375100e-03 1.185464030615213e-02 -2.397201472899013e-04
4.951023440744018e-02 1.369836208453261e-01 -5.113093691212711e-03
-7.598502187223521e-03 4.844534147271007e-02 -4.463374341129978e-03
-7.742140660651542e-03 2.303730229182555e-02 3.744024371030719e-04
3.200963035367987e-02 9.392925906615091e-02 -5.461955897086312e-03
1.103242396375981e-02 9.189496122290175e-02 -4.918669514575313e-03
-7.502673990449349e-03 3.842744924732455e-02 -1.898181745691119e-03
3.359283763100240e-03 5.780149820553948e-02 -1.973291742380923e-03
4.197828915763802e-02 1.153043191921871e-01 -5.649945398356948e-03
8.156270140752597e-03 7.564059480503416e-02 -3.172261169529733e-03
-1.133767199375268e-02 5.635129650211046e-02 -5.417695123483668e-03
0.000000000000000e+00 0.000000000000000e+00 0.000000000000000e+00
0.000000000000000e+00 0.000000000000000e+00 0.000000000000000e+00
-7.598502187223521e-03 4.844534147271007e-02 -4.463374341129978e-03
-1.130598749867939e-02 1.531481003076429e-02 -3.864778837304073e-03
0.000000000000000e+00 0.000000000000000e+00 0.000000000000000e+00
-9.837742961830737e-03 1.495604158799813e-02 -2.488614220387930e-03
-9.070174815274779e-03 5.324712182942770e-02 -6.280342926208604e-03
-1.052937823280170e-02 1.512593384311589e-02 -3.691833226909580e-03
6.940655223467695e-02 1.764192901414672e-01 -7.800846034079711e-03
-1.133767199375268e-02 5.635129650211046e-02 -5.417695123483668e-03
-7.598502187223521e-03 4.844534147271007e-02 -4.463374341129978e-03
4.951023440744018e-02 1.369836208453261e-01 -5.113093691212711e-03
1.600788131058595e-02 1.171455151979877e-01 -8.781707391673166e-03
-9.070174815274779e-03 5.324712182942770e-02 -6.280342926208604e-03
1.103242396375981e-02 9.189496122290175e-02 -4.918669514575313e-03
5.872390398113114e-02 1.588388597579172e-01 -6.090010328758666e-03
1.397518271839071e-02 1.060169395619572e-01 -8.115607689640925e-03
2.306194886110182e-01 2.525581067172302e-01 -7.514721619880760e-03
6.940655223467695e-02 1.764192901414672e-01 -7.800846034079711e-03
4.951023440744018e-02 1.369836208453261e-01 -5.113093691212711e-03
1.736354462492824e-01 1.903650808729551e-01 -2.258473563283658e-02
1.423544450363885e-01 2.248321950736355e-01 -3.444719868680224e-03
5.872390398113114e-02 1.588388597579172e-01 -6.090010328758666e-03
1.064063776555113e-01 1.720270099591779e-01 -9.571625373569148e-03
1.989355886011395e-01 2.205856820572287e-01 -1.634780375546896e-02
1.225562809903102e-01 1.986972910799363e-01 -5.894753402214903e-03
8.270684377715554e-02 2.156257155564621e-01 2.247475687665812e-03
-1.478089176348857e-02 5.847706831369581e-02 -8.633347479305442e-03
-1.133767199375268e-02 5.635129650211046e-02 -5.417695123483668e-03
6.940655223467695e-02 1.764192901414672e-01 -7.800846034079711e-03
1.546425296081455e-02 1.328532056081241e-01 -5.635929858334165e-03
-1.183972438884467e-02 5.937019525520237e-02 -6.932891415599940e-03
1.600788131058595e-02 1.171455151979877e-01 -8.781707391673166e-03
7.803976744332142e-02 1.938890291170077e-01 -6.121146620799323e-03
1.550253252280054e-02 1.255206714384206e-01 -6.035530411557133e-03
3.256827259752257e-01 3.133067224967677e-01 8.775717980704201e-03
8.270684377715554e-02 2.156257155564621e-01 2.247475687665812e-03
6.940655223467695e-02 1.764192901414672e-01 -7.800846034079711e-03
2.306194886110182e-01 2.525581067172302e-01 -7.514721619880760e-03
2.020946681571427e-01 2.749264548211791e-01 7.184244712117760e-03
7.803976744332142e-02 1.938890291170077e-01 -6.121146620799323e-03
1.423544450363885e-01 2.248321950736355e-01 -3.444719868680224e-03
2.685384769552557e-01 2.828376776240769e-01 -9.886956192755036e-04
1.695725624687903e-01 2.479501493897753e-01 -2.569102556309488e-03
-6.943565094444182e-02 3.216284335968236e-01 4.256306594122172e-02
-1.005351413438360e-01 3.738752419549730e-01 3.855504209110983e-02
-1.401266485698760e-01 5.800828055494198e-01 4.221640137165039e-02
-1.070232275154313e-01 5.157742733368194e-01 5.205836598236857e-02
-8.520998983162054e-02 3.484216790094979e-01 4.056686492396189e-02
-1.213732126053928e-01 4.756076741915148e-01 4.002056659729902e-02
-1.230123897867346e-01 5.469085765983732e-01 4.780586623547300e-02
-8.877899329653682e-02 4.170148108857591e-01 4.748168940455777e-02
-1.044148180163855e-01 4.463894312509142e-01 4.404470273715155e-02
-1.005351413438360e-01 3.738752419549730e-01 3.855504209110983e-02
-1.323559145988591e-01 4.198823976566042e-01 3.386837860058556e-02
-1.806325759110292e-01 6.629663274034319e-01 2.412644584403445e-02
-1.401266485698760e-01 5.800828055494198e-01 4.221640137165039e-02
-1.129385471628597e-01 3.983459987393974e-01 3.776382589154359e-02
-1.535933962048626e-01 5.412362076393127e-01 3.006232665369168e-02
-1.602479672877071e-01 6.173057094639667e-01 3.466942137315243e-02
-1.213732126053928e-01 4.756076741915148e-01 4.002056659729902e-02
-1.359288904339877e-01 5.067511580622266e-01 3.664389422137404e-02
-3.289307442678524e-02 1.502292288851748e-01 2.667655766550858e-02
-5.882792880418908e-02 1.905993876404815e-01 2.892664372379805e-02
-1.005351413438360e-01 3.738752419549730e-01 3.855504209110983e-02
-6.943565094444182e-02 3.216284335968236e-01 4.256306594122172e-02
-4.642667643543907e-02 1.730291241975631e-01 2.832402664219380e-02
-7.789149506445470e-02 2.781504434998264e-01 3.640518592977315e-02
-8.520998983162054e-02 3.484216790094979e-01 4.056686492396189e-02
-4.956452559610280e-02 2.320542601731232e-01 3.593142210795008e-02
-6.571128161804052e-02 2.560322479113105e-01 3.489608876790840e-02
-5.882792880418908e-02 1.905993876404815e-01 2.892664372379805e-02
-9.021722735122750e-02 2.133413105570277e-01 2.607344232233366e-02
-1.323559145988591e-01 4.198823976566042e-01 3.386837860058556e-02
-1.005351413438360e-01 3.738752419549730e-01 3.855504209110983e-02
-7.607584824167257e-02 2.035534796895339e-01 2.656850466226324e-02
-1.123961287098585e-01 3.123982852715000e-01 2.989892184548104e-02