<?xml version="1.0" ?> 
<!-- 
# vtk DataFile Version 3.0
-->
<VTKFile type="UnstructuredGrid" version="0.1" compressor="vtkZLibDataCompressor" byte_order="LittleEndian">
  <UnstructuredGrid>
    <FieldData>
      <DataArray type="Float64" Name="TIME" NumberOfTuples="1" format="ascii">
1.000000010000000e+00 
      </DataArray>
    </FieldData>

    <Piece NumberOfPoints="144" NumberOfCells="0" >
      <Points>
        <DataArray type="Float64" NumberOfComponents="3" format="ascii">
9.973931072023355e-01 7.070273513256668e-02 1.240327285323417e-16
8.653443956098175e-01 4.996068197473151e-01 4.527204716394890e-01
8.653443956098175e-01 4.996068197473150e-01 4.527204716394889e-01
8.408972616915400e-01 5.400395384249512e-01 4.999999999999998e-01
8.408972616915398e-01 5.400395384249513e-01 5.000000000000001e-01
7.071067811870000e-01 7.071067811870000e-01 7.146018366030000e-01
7.071067811870000e-01 7.071067811870000e-01 7.146018366030000e-01
4.996068197465068e-01 8.653443956084172e-01 9.764832015661981e-01
4.996068197465065e-01 8.653443956084172e-01 9.764832015661981e-01
4.790802794582723e-01 8.767986476933665e-01 1.000000000000000e+00
4.790802794582724e-01 8.767986476933666e-01 1.000000000000000e+00
0.000000000000000e+00 1.000000000000000e+00 1.500000000000000e+00
1.000000000000000e-01 3.000000000000000e-01 2.500000000000000e+00
4.999999999999999e-01 3.000000000000000e-01 2.709523809523774e+00
4.999999999999999e-01 3.000000000000000e-01 2.709523809523774e+00
9.999999999999997e-01 3.000000000000000e-01 2.971428571428627e+00
1.054545454545373e+00 3.000000000000000e-01 3.000000000000000e+00
1.150000000000000e+00 3.000000000000000e-01 3.050000000000000e+00
9.999999999999997e-01 3.000000000000000e-01 2.971428571428627e+00
1.054545454545372e+00 3.000000000000000e-01 3.000000000000000e+00
1.150000000000000e+00 3.000000000000000e-01 3.050000000000000e+00
1.500000000000000e+00 3.000000000000000e-01 3.233333333333286e+00
1.500000000000000e+00 2.999999999999999e-01 3.233333333333286e+00
2.000000000000000e+00 3.000000000000000e-01 3.495238095238156e+00
9.973931072026406e-01 7.070273512785311e-02 4.999999999999998e+00
8.653443956095526e-01 4.996068197471643e-01 5.452720471638520e+00
8.653443956095527e-01 4.996068197471640e-01 5.452720471638521e+00
8.408972616904894e-01 5.400395384261474e-01 5.500000000000001e+00
8.408972616904897e-01 5.400395384261472e-01 5.500000000000000e+00
7.071067811870000e-01 7.071067811870000e-01 5.714601836600000e+00
7.071067811870000e-01 7.071067811870000e-01 5.714601836600000e+00
4.996068197465661e-01 8.653443956085167e-01 5.976483201563966e+00
4.996068197465660e-01 8.653443956085167e-01 5.976483201563966e+00
4.790802794564817e-01 8.767986476944817e-01 6.000000000000001e+00
4.790802794564817e-01 8.767986476944815e-01 6.000000000000001e+00
0.000000000000000e+00 1.000000000000000e+00 6.500000000000000e+00
1.000000000000000e-01 3.000000000000000e-01 7.500000000000000e+00
4.999999999999999e-01 3.000000000000000e-01 7.709523809523774e+00
5.000000000000000e-01 3.000000000000000e-01 7.709523809523774e+00
1.000000000000000e+00 3.000000000000000e-01 7.971428571428627e+00
1.054545454545370e+00 3.000000000000000e-01 7.999999999999999e+00
1.150000000000000e+00 3.000000000000000e-01 8.050000000000001e+00
9.999999999999996e-01 3.000000000000000e-01 7.971428571428627e+00
1.054545454545370e+00 3.000000000000000e-01 7.999999999999999e+00
1.150000000000000e+00 3.000000000000000e-01 8.050000000000001e+00
1.500000000000000e+00 3.000000000000000e-01 8.233333333333286e+00
1.500000000000000e+00 3.000000000000000e-01 8.233333333333286e+00
2.000000000000000e+00 3.000000000000000e-01 8.495238095238156e+00
9.973931072026406e-01 7.070273512785397e-02 1.000000000000000e+01
8.653443956095526e-01 4.996068197471642e-01 1.045272047163852e+01
8.653443956095525e-01 4.996068197471640e-01 1.045272047163852e+01
8.408972616904911e-01 5.400395384261447e-01 1.050000000000000e+01
8.408972616904904e-01 5.400395384261458e-01 1.050000000000000e+01
7.071067811870000e-01 7.071067811870000e-01 1.071460183660000e+01
7.071067811870000e-01 7.071067811870000e-01 1.071460183660000e+01
4.996068197465661e-01 8.653443956085167e-01 1.097648320156397e+01
4.996068197465660e-01 8.653443956085166e-01 1.097648320156397e+01
4.790802794564824e-01 8.767986476944813e-01 1.100000000000000e+01
4.790802794564840e-01 8.767986476944802e-01 1.100000000000000e+01
0.000000000000000e+00 1.000000000000000e+00 1.150000000000000e+01
1.000000000000000e-01 3.000000000000000e-01 1.250000000000000e+01
4.999999999999999e-01 3.000000000000000e-01 1.270952380952378e+01
4.999999999999999e-01 3.000000000000000e-01 1.270952380952378e+01
9.999999999999999e-01 3.000000000000000e-01 1.297142857142863e+01
1.054545454545370e+00 3.000000000000000e-01 1.300000000000000e+01
1.150000000000000e+00 3.000000000000000e-01 1.305000000000000e+01
1.000000000000000e+00 3.000000000000000e-01 1.297142857142863e+01
1.054545454545363e+00 2.999999999999999e-01 1.299999999999999e+01
1.150000000000000e+00 3.000000000000000e-01 1.305000000000000e+01
1.500000000000000e+00 3.000000000000000e-01 1.323333333333329e+01
1.500000000000000e+00 3.000000000000000e-01 1.323333333333329e+01
2.000000000000000e+00 3.000000000000000e-01 1.349523809523816e+01
9.099418396092167e-01 4.123520859599072e-01 1.535465927548243e+01
8.072131304353306e-01 5.895942770789958e-01 1.555997188189464e+01
7.282911557660177e-01 6.852367478256445e-01 1.568414612346445e+01
7.071067811870000e-01 7.071067811870000e-01 1.571460183660000e+01
8.072131304353315e-01 5.895942770789949e-01 1.555997188189463e+01
7.282911557660178e-01 6.852367478256446e-01 1.568414612346445e+01
9.974188365449633e-01 7.035216465623562e-02 1.499964823725036e+01
9.099418396092164e-01 4.123520859599082e-01 1.535465927548244e+01
2.540680715836868e-01 9.663884211005249e-01 1.624282971409468e+01
0.000000000000000e+00 1.000000000000000e+00 1.650000000000000e+01
7.071067811870000e-01 7.071067811870000e-01 1.571460183660000e+01
5.836739772285683e-01 8.114691146331118e-01 1.587652897058727e+01
5.836739772285665e-01 8.114691146331131e-01 1.587652897058727e+01
4.573928745921861e-01 8.882395524102783e-01 1.602452946266590e+01
4.573928745921863e-01 8.882395524102782e-01 1.602452946266590e+01
2.540680715836858e-01 9.663884211005251e-01 1.624282971409468e+01
6.456898118068776e-01 3.000000000000000e-01 1.778583752047027e+01
8.155693453509683e-01 3.000000000000000e-01 1.787482203804104e+01
4.285291040100551e-01 3.000000000000000e-01 1.767208667352903e+01
6.456898118068786e-01 3.000000000000000e-01 1.778583752047028e+01
1.000000000000000e-01 3.000000000000000e-01 1.750000000000000e+01
4.285291040100564e-01 3.000000000000000e-01 1.767208667352903e+01
1.053627568438921e+00 3.000000000000000e-01 1.799951920251567e+01
1.150000000000000e+00 3.000000000000000e-01 1.805000000000000e+01
8.155693453509688e-01 3.000000000000000e-01 1.787482203804104e+01
1.053627568438920e+00 3.000000000000000e-01 1.799951920251567e+01
1.312800678365587e+00 2.999999999999999e-01 1.813527654581049e+01
1.590794601595392e+00 3.000000000000000e-01 1.828089241035947e+01
1.590794601595394e+00 2.999999999999999e-01 1.828089241035947e+01
1.995978191111754e+00 3.000000000000000e-01 1.849313143343955e+01
1.995978191111753e+00 3.000000000000000e-01 1.849313143343955e+01
2.000000000000000e+00 3.000000000000000e-01 1.849523809523816e+01
1.150000000000000e+00 3.000000000000000e-01 1.805000000000000e+01
1.204849796232627e+00 3.000000000000000e-01 1.807873084564564e+01
1.204849796232627e+00 3.000000000000000e-01 1.807873084564563e+01
1.312800678365586e+00 3.000000000000000e-01 1.813527654581049e+01
9.099650212282833e-01 4.123008091368154e-01 2.035460298935891e+01
8.076108102509388e-01 5.890449378240545e-01 2.055929315811432e+01
7.282912294134957e-01 6.852366693390888e-01 2.068414601579194e+01
7.071067811870000e-01 7.071067811870000e-01 2.071460183660000e+01
8.076108102509387e-01 5.890449378240550e-01 2.055929315811432e+01
7.282912294134957e-01 6.852366693390887e-01 2.068414601579193e+01
9.973931080192998e-01 7.070272402876927e-02 1.999999998885323e+01
9.099650212282825e-01 4.123008091368171e-01 2.035460298935891e+01
2.527815540384724e-01 9.667300861487244e-01 2.124416147965651e+01
0.000000000000000e+00 1.000000000000000e+00 2.150000000000000e+01
7.071067811870000e-01 7.071067811870000e-01 2.071460183660000e+01
5.837516764426331e-01 8.114136823547504e-01 2.087643344895820e+01
5.837516764426303e-01 8.114136823547525e-01 2.087643344895821e+01
4.573945845398238e-01 8.882386764163273e-01 2.102452754077683e+01
4.573945845398237e-01 8.882386764163273e-01 2.102452754077683e+01
2.527815540384729e-01 9.667300861487242e-01 2.124416147965650e+01
6.456898117728429e-01 3.000000000000000e-01 2.278583752045245e+01
8.155693453656027e-01 3.000000000000000e-01 2.287482203804870e+01
4.285291039950259e-01 3.000000000000000e-01 2.267208667352115e+01
6.456898117728418e-01 2.999999999999999e-01 2.278583752045245e+01
1.000000000000000e-01 3.000000000000000e-01 2.250000000000000e+01
4.285291039950233e-01 3.000000000000000e-01 2.267208667352115e+01
1.053627568438919e+00 3.000000000000000e-01 2.299951920251566e+01
1.150000000000000e+00 3.000000000000000e-01 2.305000000000000e+01
8.155693453656017e-01 2.999999999999999e-01 2.287482203804870e+01
1.053627568438926e+00 3.000000000000000e-01 2.299951920251567e+01
1.312800678387915e+00 3.000000000000000e-01 2.313527654582219e+01
1.590794601608110e+00 3.000000000000000e-01 2.328089241036613e+01
1.590794601608110e+00 3.000000000000000e-01 2.328089241036613e+01
1.995978191109075e+00 3.000000000000000e-01 2.349313143343815e+01
1.995978191109071e+00 2.999999999999999e-01 2.349313143343814e+01
2.000000000000000e+00 3.000000000000000e-01 2.349523809523816e+01
1.150000000000000e+00 3.000000000000000e-01 2.305000000000000e+01
1.204849796220207e+00 2.999999999999999e-01 2.307873084563913e+01
1.204849796220206e+00 3.000000000000000e-01 2.307873084563913e+01
1.312800678387914e+00 3.000000000000000e-01 2.313527654582218e+01
        </DataArray>
      </Points>

      <Cells>
        <DataArray type="Int32" Name="connectivity" format="ascii">
0 1 2 3 4 5 6 7 8 9 10 11 12 13 14 15 16 17 18 19 20 21 22 23 24 25 26 27 28 29 30 31 32 33 34 35 36 37 38 39 40 41 42 43 44 45 46 47 48 49 50 51 52 53 54 55 56 57 58 59 60 61 62 63 64 65 66 67 68 69 70 71 72 73 74 75 76 77 78 79 80 81 82 83 84 85 86 87 88 89 90 91 92 93 94 95 96 97 98 99 100 101 102 103 104 105 106 107 108 109 110 111 112 113 114 115 116 117 118 119 120 121 122 123 124 125 126 127 128 129 130 131 132 133 134 135 136 137 138 139 140 141 142 143 
        </DataArray>
        <DataArray type="Int32" Name="offsets" format="ascii">

        </DataArray>
        <DataArray type="UInt8" Name="types" format="ascii">

        </DataArray>
      </Cells>

  <PointData>
        <DataArray type="Float64" Name="displacement" NumberOfComponents="3" format="ascii">
2.063592988004709e-01 2.010177881742700e-01 -1.072064542831653e-03
2.434086766241617e-02 9.978218647267634e-02 -9.566118879386853e-03
2.434086766241617e-02 9.978218647267645e-02 -9.566118879386909e-03
1.464561553911969e-02 8.994633597570645e-02 -1.002038352568108e-02
1.464561553911992e-02 8.994633597570645e-02 -1.002038352568113e-02
-1.278834858822475e-02 4.894669350347847e-02 -1.044561696216528e-02
-1.278834858822475e-02 4.894669350347847e-02 -1.044561696216528e-02
-2.220722340180575e-02 1.084724759871558e-02 -8.951205945674778e-03
-2.220722340180570e-02 1.084724759871558e-02 -8.951205945674556e-03
-2.221654362799480e-02 8.286179935070637e-03 -8.772086754258002e-03
-2.221654362799491e-02 8.286179935070526e-03 -8.772086754258002e-03
0.000000000000000e+00 0.000000000000000e+00 0.000000000000000e+00
0.000000000000000e+00 0.000000000000000e+00 0.000000000000000e+00
-4.219522406238296e-03 1.583663494278775e-02 -3.002447939461916e-04
-4.219522406238352e-03 1.583663494278770e-02 -3.002447939461916e-04
-1.648369999113608e-02 8.383638281647204e-02 5.320873013254790e-04
-1.834473398695757e-02 9.475392217707773e-02 4.573330270569720e-04
-2.186634618775529e-02 1.155996462592279e-01 1.686166694185864e-04
-1.648369999113608e-02 8.383638281647204e-02 5.320873013254790e-04
-1.834473398695735e-02 9.475392217707757e-02 4.573330270569720e-04
-2.186634618775529e-02 1.155996462592279e-01 1.686166694185864e-04
-3.542601397226686e-02 2.056429407725904e-01 -3.490022794377712e-03
-3.542601397226686e-02 2.056429407725904e-01 -3.490022794377712e-03
-5.916009386822840e-02 3.716963272559653e-01 -1.581741113228796e-02
2.883480264222896e-01 2.976505196665223e-01 9.593633017260572e-03
7.033095306263504e-02 1.747716236901534e-01 -7.135811061520947e-03
7.033095306263493e-02 1.747716236901534e-01 -7.135811061522723e-03
5.695511835809186e-02 1.616421224726811e-01 -7.645062592268381e-03
5.695511835809197e-02 1.616421224726811e-01 -7.645062592268381e-03
1.373223939495105e-02 1.044344828858754e-01 -7.866775658730063e-03
1.373223939495105e-02 1.044344828858754e-01 -7.866775658730063e-03
-7.303191436738410e-03 4.780302519712165e-02 -4.439356317752718e-03
-7.303191436738354e-03 4.780302519712176e-02 -4.439356317751830e-03
-7.903662076676421e-03 4.370698762264003e-02 -4.026291754249733e-03
-7.903662076676476e-03 4.370698762264025e-02 -4.026291754249733e-03
0.000000000000000e+00 0.000000000000000e+00 0.000000000000000e+00
0.000000000000000e+00 0.000000000000000e+00 0.000000000000000e+00
-1.561114728403762e-02 4.218645910127455e-02 7.739634753401781e-03
-1.561114728403745e-02 4.218645910127461e-02 7.739634753401781e-03
-5.632126545222182e-02 1.846696960437192e-01 2.896599608003481e-02
-6.173063037159143e-02 2.044612571054129e-01 3.093221027236748e-02
-7.150821052374035e-02 2.405319702187275e-01 3.384478814991176e-02
-5.632126545222194e-02 1.846696960437190e-01 2.896599608003481e-02
-6.173063037159132e-02 2.044612571054129e-01 3.093221027236748e-02
-7.150821052374035e-02 2.405319702187275e-01 3.384478814991176e-02
-1.098184461929526e-01 3.898479297720309e-01 3.801637968340543e-02
-1.098184461929528e-01 3.898479297720308e-01 3.801637968340366e-02
-1.766659786424782e-01 6.521070682389041e-01 2.512466307130445e-02
2.926803755632555e-01 3.054216078474588e-01 9.026439502965999e-03
7.195195903597362e-02 1.797115008930676e-01 -7.774164747470280e-03
7.195195903597362e-02 1.797115008930677e-01 -7.774164747470280e-03
5.837118613207026e-02 1.663100576440868e-01 -8.263343745355201e-03
5.837118613207004e-02 1.663100576440862e-01 -8.263343745355201e-03
1.431356579630993e-02 1.077810686907549e-01 -8.364843234188513e-03
1.431356579630993e-02 1.077810686907549e-01 -8.364843234188513e-03
-7.328827389297132e-03 4.957137019393354e-02 -4.724759864812356e-03
-7.328827389297132e-03 4.957137019393365e-02 -4.724759864812356e-03
-7.954696652456072e-03 4.535265910160036e-02 -4.290303417379349e-03
-7.954696652456017e-03 4.535265910160091e-02 -4.290303417382901e-03
0.000000000000000e+00 0.000000000000000e+00 0.000000000000000e+00
0.000000000000000e+00 0.000000000000000e+00 0.000000000000000e+00
-1.593037848343193e-02 4.321460010339900e-02 7.674060611201128e-03
-1.593037848343193e-02 4.321460010339900e-02 7.674060611201128e-03
-5.737927252230479e-02 1.888556959677434e-01 2.893905694031851e-02
-6.288969266116207e-02 2.089912729305366e-01 3.091259925931311e-02
-7.285303962089262e-02 2.456230588961377e-01 3.383786562190494e-02
-5.737927252230524e-02 1.888556959677435e-01 2.893905694031673e-02
-6.288969266116129e-02 2.089912729305344e-01 3.091259925931134e-02
-7.285303962089262e-02 2.456230588961377e-01 3.383786562190494e-02
-1.119039182674939e-01 3.968731523114483e-01 3.785828639881395e-02
-1.119039182674939e-01 3.968731523114483e-01 3.785828639881395e-02
-1.802014438052144e-01 6.620139696714022e-01 2.436857740115173e-02
4.171330449743993e-02 1.028400160915671e-01 -5.041738270087137e-03
1.327596530008057e-02 8.543006469201231e-02 -1.085157454710384e-02
1.247862335744698e-03 7.311326998927570e-02 -1.276575002736990e-02
-1.463121161001224e-03 6.978232557845332e-02 -1.298493310054560e-02
1.327596530008057e-02 8.543006469201231e-02 -1.085157454710561e-02
1.247862335744698e-03 7.311326998927559e-02 -1.276575002736990e-02
1.446365221561695e-01 1.326249146823531e-01 7.475465590264463e-03
4.171330449743971e-02 1.028400160915671e-01 -5.041738270087137e-03
-1.448254956955730e-02 -3.557059888515623e-03 -4.793806997714256e-03
0.000000000000000e+00 0.000000000000000e+00 0.000000000000000e+00
-1.463121161001224e-03 6.978232557845332e-02 -1.298493310054560e-02
-1.240146327858760e-02 4.734467018534416e-02 -1.238536363645970e-02
-1.240146327858782e-02 4.734467018534372e-02 -1.238536363645970e-02
-1.680006652876248e-02 2.366901447792014e-02 -9.905559196777602e-03
-1.680006652876254e-02 2.366901447792014e-02 -9.905559196777602e-03
-1.448254956955730e-02 -3.557059888515623e-03 -4.793806997710703e-03
-4.025016520634916e-03 1.665349563136626e-02 1.304721123474906e-03
-5.874388459320978e-03 2.874003366713629e-02 2.230761638305268e-03
-2.077017281058413e-03 5.847248851640896e-03 3.832976190345505e-04
-4.025016520634916e-03 1.665349563136631e-02 1.304721123471353e-03
0.000000000000000e+00 0.000000000000000e+00 0.000000000000000e+00
-2.077017281058524e-03 5.847248851640952e-03 3.832976190345505e-04
-8.955031016629089e-03 5.076186255124981e-02 3.618130192837299e-03
-1.036668519490824e-02 6.128898018042855e-02 4.152383505800827e-03
-5.874388459321089e-03 2.874003366713634e-02 2.230761638301715e-03
-8.955031016629311e-03 5.076186255124981e-02 3.618130192833746e-03
-1.278406354454265e-02 8.126570092121355e-02 4.781021619020720e-03
-1.683558502231830e-02 1.217727455512206e-01 4.891570237401055e-03
-1.683558502231808e-02 1.217727455512209e-01 4.891570237397502e-03
-2.320196215152204e-02 1.942635281831082e-01 3.555394579915827e-03
-2.320196215152182e-02 1.942635281831080e-01 3.555394579915827e-03
-2.327095593040340e-02 1.950582211190441e-01 3.536503605744201e-03
-1.036668519490824e-02 6.128898018042855e-02 4.152383505800827e-03
-1.119100440875198e-02 6.770066521658502e-02 4.417322763767828e-03
-1.119100440875198e-02 6.770066521658491e-02 4.417322763771381e-03
-1.278406354454287e-02 8.126570092121332e-02 4.781021619020720e-03
1.042521878232321e-01 2.069288272158381e-01 -6.207984663781474e-03
4.313848615568383e-02 1.496873592758774e-01 -8.728660733638094e-03
1.872694572585287e-02 1.156280383103929e-01 -8.577349244458077e-03
1.406058572522684e-02 1.075313902790362e-01 -8.367517704428451e-03
4.313848615568383e-02 1.496873592758772e-01 -8.728660733638094e-03
1.872694572585287e-02 1.156280383103928e-01 -8.577349244458077e-03
2.873706253300617e-01 3.012063590834633e-01 7.996925044579939e-03
1.042521878232315e-01 2.069288272158376e-01 -6.207984663777921e-03
-6.883266736253335e-03 1.192022882300159e-02 -2.538981280011399e-04
0.000000000000000e+00 0.000000000000000e+00 0.000000000000000e+00
1.406058572522684e-02 1.075313902790362e-01 -8.367517704428451e-03
-2.823733770236814e-03 6.876217203939838e-02 -6.322340566736528e-03
-2.823733770237147e-03 6.876217203939761e-02 -6.322340566740081e-03
-8.707500286538383e-03 4.048877817311336e-02 -3.702884405250018e-03
-8.707500286538439e-03 4.048877817311336e-02 -3.702884405250018e-03
-6.883266736253391e-03 1.192022882300159e-02 -2.538981279975872e-04
-2.598845438333219e-02 7.654005782658968e-02 1.387282595191408e-02
-3.989211067198639e-02 1.250857825826205e-01 2.156016396644134e-02
-1.176931488787658e-02 2.974328956932787e-02 5.277526076429950e-03
-2.598845438333197e-02 7.654005782658940e-02 1.387282595191763e-02
0.000000000000000e+00 0.000000000000000e+00 0.000000000000000e+00
-1.176931488787641e-02 2.974328956932737e-02 5.277526076429950e-03
-6.245980381044069e-02 2.067229082042942e-01 3.134288490463533e-02
-7.234553947401912e-02 2.432107901108058e-01 3.432865824880338e-02
-3.989211067198628e-02 1.250857825826202e-01 2.156016396644134e-02
-6.245980381044125e-02 2.067229082042967e-01 3.134288490463177e-02
-8.969855829339846e-02 3.092800558095600e-01 3.762649255070372e-02
-1.218907036654244e-01 4.364001798442387e-01 3.817726548534495e-02
-1.218907036654246e-01 4.364001798442386e-01 3.817726548534495e-02
-1.781487050732589e-01 6.537678764809050e-01 2.678481196224425e-02
-1.781487050732584e-01 6.537678764809026e-01 2.678481196224425e-02
-1.787797859136493e-01 6.561151418863451e-01 2.659575737369124e-02
-7.234553947401912e-02 2.432107901108058e-01 3.432865824880338e-02
-7.810295045971172e-02 2.647771955809065e-01 3.567822586760983e-02
-7.810295045971127e-02 2.647771955809063e-01 3.567822586760983e-02
-8.969855829339823e-02 3.092800558095596e-01 3.762649255070372e-02
        </DataArray>
        <DataArray type="Float64" Name="projection_direction" NumberOfComponents="3" format="ascii">
1.273834879969904e-03 6.810682908623411e-04 -3.612675960141742e-04
4.639677703248579e-03 3.953262408151414e-03 -5.258288005435263e-04
4.639677703248579e-03 3.953262408151414e-03 -5.258288005435263e-04
-1.124362528161060e-03 -1.284471344945692e-03 -1.961622245683081e-04
-1.124362528161282e-03 -1.284471344945692e-03 -1.961622245685302e-04
-8.226154335130298e-04 -1.026413865280684e-03 1.588386664127528e-04
-8.226154335130298e-04 -1.026413865280684e-03 1.588386664127528e-04
1.797316828379858e-03 4.191556988665801e-03 4.293247352371576e-05
1.797316828380080e-03 4.191556988665801e-03 4.293247352371576e-05
-9.598149597001560e-04 -3.696443516854053e-04 2.978048509494347e-04
-9.598149597001004e-04 -3.696443516854053e-04 2.978048509494347e-04
0.000000000000000e+00 0.000000000000000e+00 0.000000000000000e+00
2.031386002876445e-05 3.086283089816511e-04 -1.480778495128732e-04
-2.088032867265111e-04 -1.842207313389133e-03 -1.767840610336080e-04
-2.088032867264000e-04 -1.842207313389022e-03 -1.767840610331639e-04
5.764693847665203e-05 -1.421992336133160e-03 4.995784291184080e-05
-1.436094220053086e-05 5.724774040927194e-06 1.237749149174405e-05
-1.408595905996179e-04 3.543921279407503e-04 -6.270068423530617e-05
5.764693847665203e-05 -1.421992336133215e-03 4.995784291184080e-05
-1.436094220053086e-05 5.724774040982705e-06 1.237749149218814e-05
-1.408595905996179e-04 3.543921279407503e-04 -6.270068423530617e-05
1.290655712222755e-04 -5.152285159298886e-04 1.451458006647144e-04
1.290655712227196e-04 -5.152285159297776e-04 1.451458006647144e-04
3.678950408916304e-04 -7.951052585923879e-04 1.135988280949185e-04
-5.897453656562579e-04 -1.786415620059767e-04 -1.230305053567804e-05
4.147952235245000e-05 8.082981830059843e-05 -1.458261091915602e-04
4.147952235222796e-05 8.082981830070946e-05 -1.458261091915602e-04
-2.994818755652773e-05 -5.460383137867453e-07 3.872187538789262e-05
-2.994818755652773e-05 -5.460383137867453e-07 3.872187538878080e-05
-4.565079692442353e-05 -1.381146525669674e-05 7.521949652300464e-05
-4.565079692442353e-05 -1.381146525669674e-05 7.521949652300464e-05
-1.857366575996888e-05 7.135471605879129e-05 -8.504156282285180e-06
-1.857366575991337e-05 7.135471605879129e-05 -8.504156284061537e-06
-3.648645158677022e-05 3.475724800794389e-05 3.556435625462484e-05
-3.648645158649266e-05 3.475724800783286e-05 3.556435625551302e-05
0.000000000000000e+00 0.000000000000000e+00 8.881784197001252e-16
-2.030743832238668e-04 -7.534440229476358e-04 -3.512055671617276e-04
-1.121001736786864e-05 -1.354102717907035e-04 -6.660257535795466e-05
-1.121001736803517e-05 -1.354102717907590e-04 -6.660257535617831e-05
-1.240059828847562e-04 7.183283717199229e-05 -3.536203935006199e-05
1.690461604453297e-04 6.220557707425911e-05 1.034320869788274e-04
-3.603987598643776e-05 -3.669495089031471e-05 -4.317026722056028e-05
-1.240059828842011e-04 7.183283717238087e-05 -3.536203934828563e-05
1.690461604452187e-04 6.220557707425911e-05 1.034320869788274e-04
-3.603987598643776e-05 -3.669495089031471e-05 -4.317026722056028e-05
5.641212305218524e-05 -8.978639066092864e-05 1.211710910755670e-04
5.641212305262933e-05 -8.978639066081762e-05 1.211710910773434e-04
4.815687964510040e-05 5.849833193394272e-05 -3.062783274465630e-05
-3.847983013796075e-04 -3.015126388681844e-04 -3.478854818173005e-04
7.240730833601994e-05 7.764014939859454e-05 -2.219010680697409e-04
7.240730833601994e-05 7.764014939881658e-05 -2.219010680697409e-04
6.586978870337656e-05 -3.972603182167411e-05 -2.908205046381340e-05
6.586978870326554e-05 -3.972603182156309e-05 -2.908205046558976e-05
4.738365105283471e-06 -6.489244082752421e-06 1.116384245491986e-06
4.738365105283471e-06 -6.489244082752421e-06 1.116384245491986e-06
1.897885109675146e-05 7.900321062814797e-05 -2.370813292351670e-05
1.897885109680697e-05 7.900321062825899e-05 -2.370813292174034e-05
4.360723527352395e-05 7.367482132480951e-05 -1.965981122431515e-05
4.360723527369048e-05 7.367482132492054e-05 -1.965981121720972e-05
0.000000000000000e+00 0.000000000000000e+00 0.000000000000000e+00
-1.303364405119828e-04 -6.341420244398988e-04 -2.600153081662171e-04
-1.903629320215705e-05 -7.927387853112755e-05 -2.903538441856313e-05
-1.903629320204603e-05 -7.927387853123857e-05 -2.903538442033948e-05
-8.868105418302630e-05 3.449739226502047e-07 -2.840144014726320e-05
2.077826712331143e-04 1.303083473702671e-05 1.002060695842744e-04
-1.022460432271721e-04 -3.440480866490070e-05 -9.070020299972725e-05
-8.868105418324834e-05 3.449739227057158e-07 -2.840144014726320e-05
2.077826712331143e-04 1.303083473724875e-05 1.002060695896034e-04
-1.022460432271721e-04 -3.440480866490070e-05 -9.070020299972725e-05
1.047696507106011e-05 -6.724622393761148e-05 5.486331774484654e-05
1.047696507083806e-05 -6.724622393750046e-05 5.486331774662290e-05
-4.039408582023896e-05 3.803146114589318e-06 -1.332317615521106e-05
3.864084461440709e-03 4.707821049130811e-03 -5.154033712493344e-04
-1.994707245776106e-03 -2.964037075788850e-03 2.387725914232419e-04
5.286418010281957e-03 7.612479676926465e-03 -7.351721913906317e-04
2.398582934125759e-03 3.469703543556357e-03 -2.795189212712046e-04
-1.994707245776106e-03 -2.964037075788850e-03 2.387725914285710e-04
5.286418010281735e-03 7.612479676926465e-03 -7.351721913924081e-04
1.421304616571195e-04 1.911622948976677e-03 2.146779027398793e-04
3.864084461440487e-03 4.707821049130367e-03 -5.154033712564399e-04
-1.088371403838245e-03 -1.843770292690672e-03 3.372622436650374e-04
6.595677864134967e-18 0.000000000000000e+00 0.000000000000000e+00
2.398582934125759e-03 3.469703543556357e-03 -2.795189212712046e-04
-2.432162112404157e-03 -3.425513646029943e-03 3.232423534313966e-04
-2.432162112404046e-03 -3.425513646030054e-03 3.232423534260676e-04
3.521553303177549e-03 7.971246959028289e-03 -4.771472816216260e-04
3.521553303177660e-03 7.971246959028400e-03 -4.771472816180733e-04
-1.088371403838190e-03 -1.843770292690672e-03 3.372622436614847e-04
-3.171564558013262e-05 -7.585377363106272e-05 -8.863957271998402e-05
1.303320685398512e-04 -7.888423953804069e-04 1.030312322924942e-04
2.187219223647174e-04 -1.599313260861601e-03 -1.521962265478294e-04
-3.171564557991058e-05 -7.585377363100720e-05 -8.863957271643130e-05
-3.183017780942904e-04 6.519942482133279e-04 1.079588140768806e-04
2.187219223647729e-04 -1.599313260861657e-03 -1.521962265513821e-04
-4.737927583131629e-05 5.582929239749679e-04 -3.979275287235851e-05
-9.337322711888696e-05 -2.452573451823259e-04 -4.189593916237300e-06
1.303320685401843e-04 -7.888423953804069e-04 1.030312322960469e-04
-4.737927583109425e-05 5.582929239749124e-04 -3.979275286880579e-05
4.603982533146755e-05 -2.396048031871878e-05 -4.594080188269345e-06
-6.850512416001209e-06 -1.143205817072501e-03 1.245857091234370e-04
-6.850512416223253e-06 -1.143205817072668e-03 1.245857091234370e-04
9.421322968350410e-05 -1.430055891797843e-03 7.172140583122655e-05
9.421322968372614e-05 -1.430055891797788e-03 7.172140583122655e-05
1.057297326154671e-04 -1.574218917264947e-03 6.955370158223673e-05
-9.337322711888696e-05 -2.452573451823259e-04 -4.189593916237300e-06
-9.866577662420717e-05 -1.122831850845551e-03 5.520156980054480e-05
-9.866577662398512e-05 -1.122831850845440e-03 5.520156980409752e-05
4.603982533168960e-05 -2.396048031882980e-05 -4.594080188269345e-06
-6.569251098809126e-05 8.172268137762728e-05 1.970269768136745e-05
-4.881316163096727e-05 -1.174502005285571e-05 2.321265274218831e-06
-8.741206687556957e-05 7.378526896495430e-05 2.526642190403550e-05
-2.495373875432971e-05 -5.085402312565712e-05 6.170471027644453e-05
-4.881316163107829e-05 -1.174502005296674e-05 2.321265270666117e-06
-8.741206687545855e-05 7.378526896528737e-05 2.526642190758821e-05
-1.230539444541323e-03 -4.167905361252000e-05 -1.801603627491488e-04
-6.569251098786921e-05 8.172268137829342e-05 1.970269766715660e-05
-1.156917012931913e-04 3.582551995662264e-05 6.223693822349219e-05
1.467763996539603e-18 0.000000000000000e+00 -1.421085471520200e-14
-2.495373875432971e-05 -5.085402312565712e-05 6.170471027644453e-05
3.649657661308758e-06 -7.146130229596093e-05 -2.386685179800452e-05
3.649657661197736e-06 -7.146130229562786e-05 -2.386685180510995e-05
-1.275050919441467e-04 -1.381072303630049e-05 3.847060722605988e-05
-1.275050919440912e-04 -1.381072303630049e-05 3.847060722605988e-05
-1.156917012930525e-04 3.582551995651162e-05 6.223693822349219e-05
-2.449554194694503e-05 -3.219957923678018e-05 -5.097392446984372e-05
-1.862792559037540e-05 -8.040329648217881e-05 -4.087159839372134e-05
-4.123027665542400e-05 -9.227026532843130e-05 -6.594031102835629e-05
-2.449554194683401e-05 -3.219957923678018e-05 -5.097392446984372e-05
-1.121919792824444e-04 -7.726841765303694e-04 -2.466538632361903e-04
-4.123027665586809e-05 -9.227026532804272e-05 -6.594031102125086e-05
1.251828309423164e-04 -1.025297822754290e-06 6.136535883172201e-05
-5.999046421689691e-05 -8.297665207845917e-05 -1.364869006259539e-04
-1.862792559015336e-05 -8.040329648195677e-05 -4.087159839016863e-05
1.251828309420944e-04 -1.025297823087357e-06 6.136535882461658e-05
7.344451297774945e-05 -2.396549489502853e-05 8.532412567774372e-05
-7.013945597966753e-05 -5.825531914571691e-05 5.627048802736567e-05
-7.013945597900140e-05 -5.825531914538384e-05 5.627048803091839e-05