<?xml version="1.0" ?> 
<!-- 
# vtk DataFile Version 3.0
-->
<VTKFile type="UnstructuredGrid" version="0.1" compressor="vtkZLibDataCompressor" byte_order="LittleEndian">
  <UnstructuredGrid>
    <FieldData>
      <DataArray type="Float64" Name="TIME" NumberOfTuples="1" format="ascii">
1.000000010000000e+00 
      </DataArray>
    </FieldData>

    <Piece NumberOfPoints="2447" NumberOfCells="267" >
      <Points>
        <DataArray type="Float64" NumberOfComponents="3" format="ascii">
7.000000000000000e-01 0.000000000000000e+00 0.000000000000000e+00
6.062177826489999e-01 3.500000000000000e-01 0.000000000000000e+00
6.062177826489999e-01 3.500000000000000e-01 5.000000000000000e-01
7.000000000000000e-01 0.000000000000000e+00 5.000000000000000e-01
1.000000000000000e+00 0.000000000000000e+00 0.000000000000000e+00
8.660254037839999e-01 5.000000000000000e-01 0.000000000000000e+00
8.660254037839999e-01 5.000000000000000e-01 5.000000000000000e-01
1.000000000000000e+00 0.000000000000000e+00 5.000000000000000e-01
6.062177826489999e-01 3.500000000000000e-01 0.000000000000000e+00
3.500000000000000e-01 6.062177826489999e-01 0.000000000000000e+00
3.500000000000000e-01 6.062177826489999e-01 5.000000000000000e-01
6.062177826489999e-01 3.500000000000000e-01 5.000000000000000e-01
8.660254037839999e-01 5.000000000000000e-01 0.000000000000000e+00
5.000000000000000e-01 8.660254037839999e-01 0.000000000000000e+00
5.000000000000000e-01 8.660254037839999e-01 5.000000000000000e-01
8.660254037839999e-01 5.000000000000000e-01 5.000000000000000e-01
3.500000000000000e-01 6.062177826489999e-01 0.000000000000000e+00
0.000000000000000e+00 7.000000000000000e-01 0.000000000000000e+00
0.000000000000000e+00 7.000000000000000e-01 5.000000000000000e-01
3.500000000000000e-01 6.062177826489999e-01 5.000000000000000e-01
5.000000000000000e-01 8.660254037839999e-01 0.000000000000000e+00
0.000000000000000e+00 1.000000000000000e+00 0.000000000000000e+00
0.000000000000000e+00 1.000000000000000e+00 5.000000000000000e-01
5.000000000000000e-01 8.660254037839999e-01 5.000000000000000e-01
7.000000000000000e-01 0.000000000000000e+00 5.000000000000000e-01
6.062177826489999e-01 3.500000000000000e-01 5.000000000000000e-01
6.062177826489999e-01 3.500000000000000e-01 1.000000000000000e+00
7.000000000000000e-01 0.000000000000000e+00 1.000000000000000e+00
1.000000000000000e+00 0.000000000000000e+00 5.000000000000000e-01
8.660254037839999e-01 5.000000000000000e-01 5.000000000000000e-01
8.660254037839999e-01 5.000000000000000e-01 1.000000000000000e+00
1.000000000000000e+00 0.000000000000000e+00 1.000000000000000e+00
6.062177826489999e-01 3.500000000000000e-01 5.000000000000000e-01
3.500000000000000e-01 6.062177826489999e-01 5.000000000000000e-01
3.500000000000000e-01 6.062177826489999e-01 1.000000000000000e+00
6.062177826489999e-01 3.500000000000000e-01 1.000000000000000e+00
8.660254037839999e-01 5.000000000000000e-01 5.000000000000000e-01
5.000000000000000e-01 8.660254037839999e-01 5.000000000000000e-01
5.000000000000000e-01 8.660254037839999e-01 1.000000000000000e+00
8.660254037839999e-01 5.000000000000000e-01 1.000000000000000e+00
3.500000000000000e-01 6.062177826489999e-01 5.000000000000000e-01
0.000000000000000e+00 7.000000000000000e-01 5.000000000000000e-01
0.000000000000000e+00 7.000000000000000e-01 1.000000000000000e+00
3.500000000000000e-01 6.062177826489999e-01 1.000000000000000e+00
5.000000000000000e-01 8.660254037839999e-01 5.000000000000000e-01
0.000000000000000e+00 1.000000000000000e+00 5.000000000000000e-01
0.000000000000000e+00 1.000000000000000e+00 1.000000000000000e+00
5.000000000000000e-01 8.660254037839999e-01 1.000000000000000e+00
7.000000000000000e-01 0.000000000000000e+00 1.000000000000000e+00
6.062177826489999e-01 3.500000000000000e-01 1.000000000000000e+00
6.062177826489999e-01 3.500000000000000e-01 1.500000000000000e+00
7.000000000000000e-01 0.000000000000000e+00 1.500000000000000e+00
1.000000000000000e+00 0.000000000000000e+00 1.000000000000000e+00
8.660254037839999e-01 5.000000000000000e-01 1.000000000000000e+00
8.660254037839999e-01 5.000000000000000e-01 1.500000000000000e+00
1.000000000000000e+00 0.000000000000000e+00 1.500000000000000e+00
6.062177826489999e-01 3.500000000000000e-01 1.000000000000000e+00
3.500000000000000e-01 6.062177826489999e-01 1.000000000000000e+00
3.500000000000000e-01 6.062177826489999e-01 1.500000000000000e+00
6.062177826489999e-01 3.500000000000000e-01 1.500000000000000e+00
8.660254037839999e-01 5.000000000000000e-01 1.000000000000000e+00
5.000000000000000e-01 8.660254037839999e-01 1.000000000000000e+00
5.000000000000000e-01 8.660254037839999e-01 1.500000000000000e+00
8.660254037839999e-01 5.000000000000000e-01 1.500000000000000e+00
3.500000000000000e-01 6.062177826489999e-01 1.000000000000000e+00
0.000000000000000e+00 7.000000000000000e-01 1.000000000000000e+00
0.000000000000000e+00 7.000000000000000e-01 1.500000000000000e+00
3.500000000000000e-01 6.062177826489999e-01 1.500000000000000e+00
5.000000000000000e-01 8.660254037839999e-01 1.000000000000000e+00
0.000000000000000e+00 1.000000000000000e+00 1.000000000000000e+00
0.000000000000000e+00 1.000000000000000e+00 1.500000000000000e+00
5.000000000000000e-01 8.660254037839999e-01 1.500000000000000e+00
0.000000000000000e+00 0.000000000000000e+00 3.500000000000000e+00
0.000000000000000e+00 0.000000000000000e+00 3.000000000000000e+00
0.000000000000000e+00 3.000000000000000e-01 3.000000000000000e+00
0.000000000000000e+00 3.000000000000000e-01 3.500000000000000e+00
5.000000000000000e-01 0.000000000000000e+00 3.500000000000000e+00
5.000000000000000e-01 0.000000000000000e+00 3.000000000000000e+00
5.000000000000000e-01 3.000000000000000e-01 3.000000000000000e+00
5.000000000000000e-01 3.000000000000000e-01 3.500000000000000e+00
0.000000000000000e+00 0.000000000000000e+00 3.000000000000000e+00
0.000000000000000e+00 0.000000000000000e+00 2.500000000000000e+00
0.000000000000000e+00 3.000000000000000e-01 2.500000000000000e+00
0.000000000000000e+00 3.000000000000000e-01 3.000000000000000e+00
5.000000000000000e-01 0.000000000000000e+00 3.000000000000000e+00
5.000000000000000e-01 0.000000000000000e+00 2.500000000000000e+00
5.000000000000000e-01 3.000000000000000e-01 2.500000000000000e+00
5.000000000000000e-01 3.000000000000000e-01 3.000000000000000e+00
5.000000000000000e-01 0.000000000000000e+00 3.500000000000000e+00
5.000000000000000e-01 0.000000000000000e+00 3.000000000000000e+00
5.000000000000000e-01 3.000000000000000e-01 3.000000000000000e+00
5.000000000000000e-01 3.000000000000000e-01 3.500000000000000e+00
1.000000000000000e+00 0.000000000000000e+00 3.500000000000000e+00
1.000000000000000e+00 0.000000000000000e+00 3.000000000000000e+00
1.000000000000000e+00 3.000000000000000e-01 3.000000000000000e+00
1.000000000000000e+00 3.000000000000000e-01 3.500000000000000e+00
5.000000000000000e-01 0.000000000000000e+00 3.000000000000000e+00
5.000000000000000e-01 0.000000000000000e+00 2.500000000000000e+00
5.000000000000000e-01 3.000000000000000e-01 2.500000000000000e+00
5.000000000000000e-01 3.000000000000000e-01 3.000000000000000e+00
1.000000000000000e+00 0.000000000000000e+00 3.000000000000000e+00
1.000000000000000e+00 0.000000000000000e+00 2.500000000000000e+00
1.000000000000000e+00 3.000000000000000e-01 2.500000000000000e+00
1.000000000000000e+00 3.000000000000000e-01 3.000000000000000e+00
1.000000000000000e+00 0.000000000000000e+00 3.500000000000000e+00
1.000000000000000e+00 0.000000000000000e+00 3.000000000000000e+00
1.000000000000000e+00 3.000000000000000e-01 3.000000000000000e+00
1.000000000000000e+00 3.000000000000000e-01 3.500000000000000e+00
1.500000000000000e+00 0.000000000000000e+00 3.500000000000000e+00
1.500000000000000e+00 0.000000000000000e+00 3.000000000000000e+00
1.500000000000000e+00 3.000000000000000e-01 3.000000000000000e+00
1.500000000000000e+00 3.000000000000000e-01 3.500000000000000e+00
1.000000000000000e+00 0.000000000000000e+00 3.000000000000000e+00
1.000000000000000e+00 0.000000000000000e+00 2.500000000000000e+00
1.000000000000000e+00 3.000000000000000e-01 2.500000000000000e+00
1.000000000000000e+00 3.000000000000000e-01 3.000000000000000e+00
1.500000000000000e+00 0.000000000000000e+00 3.000000000000000e+00
1.500000000000000e+00 0.000000000000000e+00 2.500000000000000e+00
1.500000000000000e+00 3.000000000000000e-01 2.500000000000000e+00
1.500000000000000e+00 3.000000000000000e-01 3.000000000000000e+00
1.500000000000000e+00 0.000000000000000e+00 3.500000000000000e+00
1.500000000000000e+00 0.000000000000000e+00 3.000000000000000e+00
1.500000000000000e+00 3.000000000000000e-01 3.000000000000000e+00
1.500000000000000e+00 3.000000000000000e-01 3.500000000000000e+00
2.000000000000000e+00 0.000000000000000e+00 3.500000000000000e+00
2.000000000000000e+00 0.000000000000000e+00 3.000000000000000e+00
2.000000000000000e+00 3.000000000000000e-01 3.000000000000000e+00
2.000000000000000e+00 3.000000000000000e-01 3.500000000000000e+00
1.500000000000000e+00 0.000000000000000e+00 3.000000000000000e+00
1.500000000000000e+00 0.000000000000000e+00 2.500000000000000e+00
1.500000000000000e+00 3.000000000000000e-01 2.500000000000000e+00
1.500000000000000e+00 3.000000000000000e-01 3.000000000000000e+00
2.000000000000000e+00 0.000000000000000e+00 3.000000000000000e+00
2.000000000000000e+00 0.000000000000000e+00 2.500000000000000e+00
2.000000000000000e+00 3.000000000000000e-01 2.500000000000000e+00
2.000000000000000e+00 3.000000000000000e-01 3.000000000000000e+00
7.000000000000000e-01 0.000000000000000e+00 5.000000000000000e+00
6.062177826489999e-01 3.500000000000000e-01 5.000000000000000e+00
6.062177826489999e-01 3.500000000000000e-01 5.500000000000000e+00
7.000000000000000e-01 0.000000000000000e+00 5.500000000000000e+00
1.000000000000000e+00 0.000000000000000e+00 5.000000000000000e+00
8.660254037839999e-01 5.000000000000000e-01 5.000000000000000e+00
8.660254037839999e-01 5.000000000000000e-01 5.500000000000000e+00
1.000000000000000e+00 0.000000000000000e+00 5.500000000000000e+00
[...]
  <PointData>
        <DataArray type="Float64" Name="displacement" NumberOfComponents="3" format="ascii">
2.523371802972837e-01 1.177683054682912e-01 -2.062919295369656e-02
1.188528478364072e-01 6.496279979316903e-02 -1.921801335796332e-02
8.302426722908496e-02 5.348935516721808e-02 -1.753454715290893e-02
2.109131971355291e-01 9.422264208585755e-02 -2.375870365912592e-02
2.479246392042559e-01 2.170557463151852e-01 -4.405976714190948e-04
5.737549105619320e-02 1.357436612223071e-01 -7.950572848446502e-03
2.526301140686912e-02 9.995845310390078e-02 -1.031558058018103e-02
1.917075907727797e-01 2.131208772373548e-01 -2.387496109911865e-03
1.188528478364072e-01 6.496279979316903e-02 -1.921801335796332e-02
2.952376763991975e-02 1.252484818667695e-02 -5.390841204327447e-04
2.425200623877849e-02 2.285768553728115e-02 -1.200709670746115e-02
8.302426722908496e-02 5.348935516721808e-02 -1.753454715290893e-02
5.737549105619320e-02 1.357436612223071e-01 -7.950572848446502e-03
-1.603789763412863e-02 2.160164923469154e-02 -1.342216157739717e-02
-3.217284041680684e-03 4.148087067412704e-02 -9.255913905929449e-03
2.526301140686912e-02 9.995845310390078e-02 -1.031558058018103e-02
2.952376763991975e-02 1.252484818667695e-02 -5.390841204327447e-04
0.000000000000000e+00 0.000000000000000e+00 0.000000000000000e+00
0.000000000000000e+00 0.000000000000000e+00 0.000000000000000e+00
2.425200623877849e-02 2.285768553728115e-02 -1.200709670746115e-02
-1.603789763412863e-02 2.160164923469154e-02 -1.342216157739717e-02
0.000000000000000e+00 0.000000000000000e+00 0.000000000000000e+00
0.000000000000000e+00 0.000000000000000e+00 0.000000000000000e+00
-3.217284041680684e-03 4.148087067412704e-02 -9.255913905929449e-03
2.109131971355291e-01 9.422264208585755e-02 -2.375870365912592e-02
8.302426722908496e-02 5.348935516721808e-02 -1.753454715290893e-02
8.075012543582466e-02 6.840973617360106e-02 -8.429747492617783e-03
1.568973642487866e-01 1.040214462015455e-01 -1.800774044376832e-02
1.917075907727797e-01 2.131208772373548e-01 -2.387496109911865e-03
2.526301140686912e-02 9.995845310390078e-02 -1.031558058018103e-02
4.120164486456878e-02 1.344532043930891e-01 -1.301507946034164e-02
1.464825813260897e-01 1.653869812624737e-01 1.684679136903135e-03
8.302426722908496e-02 5.348935516721808e-02 -1.753454715290893e-02
2.425200623877849e-02 2.285768553728115e-02 -1.200709670746115e-02
2.086921632189121e-02 1.223212910265919e-02 -2.279533397359276e-03
8.075012543582466e-02 6.840973617360106e-02 -8.429747492617783e-03
2.526301140686912e-02 9.995845310390078e-02 -1.031558058018103e-02
-3.217284041680684e-03 4.148087067412704e-02 -9.255913905929449e-03
-2.167103301691628e-02 1.301913878811836e-02 -8.891115700414797e-03
4.120164486456878e-02 1.344532043930891e-01 -1.301507946034164e-02
2.425200623877849e-02 2.285768553728115e-02 -1.200709670746115e-02
0.000000000000000e+00 0.000000000000000e+00 0.000000000000000e+00
0.000000000000000e+00 0.000000000000000e+00 0.000000000000000e+00
2.086921632189121e-02 1.223212910265919e-02 -2.279533397359276e-03
-3.217284041680684e-03 4.148087067412704e-02 -9.255913905929449e-03
0.000000000000000e+00 0.000000000000000e+00 0.000000000000000e+00
0.000000000000000e+00 0.000000000000000e+00 0.000000000000000e+00
-2.167103301691628e-02 1.301913878811836e-02 -8.891115700414797e-03
1.568973642487866e-01 1.040214462015455e-01 -1.800774044376832e-02
8.075012543582466e-02 6.840973617360106e-02 -8.429747492617783e-03
6.918780996363119e-02 8.427617869119006e-02 -1.018360092340402e-02
1.288829715598068e-01 9.763239158308248e-02 -1.442269402053187e-02
1.464825813260897e-01 1.653869812624737e-01 1.684679136903135e-03
4.120164486456878e-02 1.344532043930891e-01 -1.301507946034164e-02
4.094749889961482e-02 1.132907722653797e-01 -7.017147853474033e-03
1.246134609800359e-01 1.556908279230200e-01 -2.866442058680141e-03
8.075012543582466e-02 6.840973617360106e-02 -8.429747492617783e-03
2.086921632189121e-02 1.223212910265919e-02 -2.279533397359276e-03
3.540424579779132e-02 5.479763504700593e-02 4.398131165688337e-03
6.918780996363119e-02 8.427617869119006e-02 -1.018360092340402e-02
4.120164486456878e-02 1.344532043930891e-01 -1.301507946034164e-02
-2.167103301691628e-02 1.301913878811836e-02 -8.891115700414797e-03
6.934930910742226e-03 8.169127161671938e-02 -1.748203893909098e-02
4.094749889961482e-02 1.132907722653797e-01 -7.017147853474033e-03
2.086921632189121e-02 1.223212910265919e-02 -2.279533397359276e-03
0.000000000000000e+00 0.000000000000000e+00 0.000000000000000e+00
0.000000000000000e+00 0.000000000000000e+00 0.000000000000000e+00
3.540424579779132e-02 5.479763504700593e-02 4.398131165688337e-03
-2.167103301691628e-02 1.301913878811836e-02 -8.891115700414797e-03
0.000000000000000e+00 0.000000000000000e+00 0.000000000000000e+00
0.000000000000000e+00 0.000000000000000e+00 0.000000000000000e+00
6.934930910742226e-03 8.169127161671938e-02 -1.748203893909098e-02
0.000000000000000e+00 0.000000000000000e+00 0.000000000000000e+00
0.000000000000000e+00 0.000000000000000e+00 0.000000000000000e+00
0.000000000000000e+00 0.000000000000000e+00 0.000000000000000e+00
0.000000000000000e+00 0.000000000000000e+00 0.000000000000000e+00
1.639591068035431e-02 4.701999434823697e-02 9.196895830862051e-03
1.473640613005919e-02 3.223188164296829e-02 1.442555403957567e-02
-1.070840738795825e-02 3.125643788290208e-02 -1.119155834425224e-04
-2.509626834382335e-02 4.449075231383835e-02 3.462633526129086e-03
0.000000000000000e+00 0.000000000000000e+00 0.000000000000000e+00
0.000000000000000e+00 0.000000000000000e+00 0.000000000000000e+00
0.000000000000000e+00 0.000000000000000e+00 0.000000000000000e+00
0.000000000000000e+00 0.000000000000000e+00 0.000000000000000e+00
1.473640613005919e-02 3.223188164296829e-02 1.442555403957567e-02
1.379731435899993e-02 3.817997886325248e-03 2.068529220820554e-02
1.015693001438491e-04 1.543141544908109e-03 -7.403892475633527e-04
-1.070840738795825e-02 3.125643788290208e-02 -1.119155834425224e-04
1.639591068035431e-02 4.701999434823697e-02 9.196895830862051e-03
1.473640613005919e-02 3.223188164296829e-02 1.442555403957567e-02
-1.070840738795825e-02 3.125643788290208e-02 -1.119155834425224e-04
-2.509626834382335e-02 4.449075231383835e-02 3.462633526129086e-03
1.940829655482629e-02 1.451218329295092e-01 2.920887675907704e-02
2.263869776721727e-02 9.171221584211420e-02 3.543719318472326e-02
-1.755179966459080e-02 8.613350058760996e-02 4.957499414434642e-04
-3.998483025305898e-02 1.365945324193819e-01 -7.424323069731894e-04
1.473640613005919e-02 3.223188164296829e-02 1.442555403957567e-02
1.379731435899993e-02 3.817997886325248e-03 2.068529220820554e-02
1.015693001438491e-04 1.543141544908109e-03 -7.403892475633527e-04
-1.070840738795825e-02 3.125643788290208e-02 -1.119155834425224e-04
2.263869776721727e-02 9.171221584211420e-02 3.543719318472326e-02
2.740133143295133e-02 2.788282543176010e-02 4.293876865918308e-02
2.148766044241223e-03 2.104907371023867e-02 2.005915990339594e-03
-1.755179966459080e-02 8.613350058760996e-02 4.957499414434642e-04
1.940829655482629e-02 1.451218329295092e-01 2.920887675907704e-02
2.263869776721727e-02 9.171221584211420e-02 3.543719318472326e-02
-1.755179966459080e-02 8.613350058760996e-02 4.957499414434642e-04
-3.998483025305898e-02 1.365945324193819e-01 -7.424323069731894e-04
1.508593114371846e-02 2.628343513810538e-01 4.485039205525922e-02
2.344600716136720e-02 1.735876984754267e-01 5.333440222525424e-02
-2.495200625646660e-02 1.652065089198923e-01 2.570552315777639e-04
-4.711973942342362e-02 2.507519446415556e-01 -7.461370965476573e-03
2.263869776721727e-02 9.171221584211420e-02 3.543719318472326e-02
2.740133143295133e-02 2.788282543176010e-02 4.293876865918308e-02
2.148766044241223e-03 2.104907371023867e-02 2.005915990339594e-03
-1.755179966459080e-02 8.613350058760996e-02 4.957499414434642e-04
2.344600716136720e-02 1.735876984754267e-01 5.333440222525424e-02
3.471822794370825e-02 8.393817245899096e-02 6.229568252102039e-02
-4.233682788802349e-03 7.656860350679574e-02 7.110063345100141e-03
-2.495200625646660e-02 1.652065089198923e-01 2.570552315777639e-04
1.508593114371846e-02 2.628343513810538e-01 4.485039205525922e-02
2.344600716136720e-02 1.735876984754267e-01 5.333440222525424e-02
-2.495200625646660e-02 1.652065089198923e-01 2.570552315777639e-04
-4.711973942342362e-02 2.507519446415556e-01 -7.461370965476573e-03
3.846344661645011e-03 3.807008362710787e-01 5.175621500115278e-02
1.800674646817643e-02 2.611118116183778e-01 6.420534284200435e-02
-3.208986036272050e-02 2.478411025652476e-01 -2.380129145105934e-03
-5.904895208180117e-02 3.720844923765126e-01 -1.583192464225965e-02
2.344600716136720e-02 1.735876984754267e-01 5.333440222525424e-02
3.471822794370825e-02 8.393817245899096e-02 6.229568252102039e-02
-4.233682788802349e-03 7.656860350679574e-02 7.110063345100141e-03
-2.495200625646660e-02 1.652065089198923e-01 2.570552315777639e-04
1.800674646817643e-02 2.611118116183778e-01 6.420534284200435e-02
3.123549878433437e-02 1.530220961420275e-01 7.165758524401956e-02
-1.010737856830152e-02 1.446741421553101e-01 9.704724748588446e-03
-3.208986036272050e-02 2.478411025652476e-01 -2.380129145105934e-03
3.258287150406450e-01 1.847395771630155e-01 -4.531448628161733e-02
1.643436179130139e-01 1.175025611613564e-01 -2.074164926962975e-02
1.267771666216181e-01 9.866345471466585e-02 -2.916117695774612e-02
2.426428195098067e-01 1.455285572265394e-01 -4.951030049800929e-02
3.205834097291810e-01 3.053282026007445e-01 1.006826882425208e-02
8.301019366086115e-02 2.074847744242427e-01 -3.954978990141338e-04
6.772084328002335e-02 1.715961797490311e-01 -7.020528239286944e-03
2.259880896364540e-01 2.450471161536764e-01 -7.516793485065940e-03
2.439931184497917e-01 1.601512809117421e-01 -3.286096858323266e-02
1.475537227342722e-01 1.063462928386141e-01 -2.634420383914594e-02
1.822738447938620e-01 1.283048996528834e-01 -3.997601794631598e-02
2.861038419709799e-01 1.616555916699136e-01 -4.904384075120662e-02
1.993549151705634e-01 2.676285427039392e-01 6.800469692949857e-03
7.689801390979671e-02 1.879914442482267e-01 -6.299668058300698e-03
1.402080610587069e-01 2.182129293080373e-01 -4.308846994898120e-03
2.653387153706099e-01 2.741800636721189e-01 -2.206425451107722e-03
3.194192681948811e-01 2.471451333788013e-01 -1.912839729022404e-02
1.234737913542191e-01 1.621457857412023e-01 -1.008912827152710e-02
9.629468897896884e-02 1.352365476599333e-01 -1.690099147631215e-02
2.347833564011640e-01 1.949356736298338e-01 -2.881614028594499e-02
1.643436179130139e-01 1.175025611613564e-01 -2.074164926962975e-02
4.724167362545418e-02 2.923444676908648e-02 -6.811965989920628e-04
4.312688032641889e-02 3.106339484036565e-02 -1.074644499296300e-02
1.267771666216181e-01 9.866345471466585e-02 -2.916117695774612e-02
8.301019366086115e-02 2.074847744242427e-01 -3.954978990141338e-04
-1.375102359602559e-02 5.558655606753329e-02 -9.590766921396380e-03
-1.013223284933411e-02 5.435904045243851e-02 -6.278296630824332e-03
6.772084328002335e-02 1.715961797490311e-01 -7.020528239286944e-03
9.609217554346025e-02 7.061288402013646e-02 -8.952390459802190e-03
4.827839950152912e-02 3.207782269530168e-02 -7.823914211226307e-03
8.007829176933826e-02 6.415109753942673e-02 -1.917299431703081e-02
1.475537227342722e-01 1.063462928386141e-01 -2.634420383914594e-02
1.369426736756914e-02 1.285470098923447e-01 -5.339255631311131e-03
-1.130060772009665e-02 5.718744748785467e-02 -5.997433878938115e-03
1.551147721236093e-02 1.135615324446108e-01 -8.662734302571591e-03
7.689801390979671e-02 1.879914442482267e-01 -6.299668058300698e-03
1.234737913542191e-01 1.621457857412023e-01 -1.008912827152710e-02
1.584374831183244e-02 3.969602221188860e-02 -5.783993102969064e-03
1.601483996711003e-02 3.988669770570007e-02 -8.205776760536142e-03
9.629468897896884e-02 1.352365476599333e-01 -1.690099147631215e-02
4.724167362545418e-02 2.923444676908648e-02 -6.811965989920628e-04
0.000000000000000e+00 0.000000000000000e+00 0.000000000000000e+00
0.000000000000000e+00 0.000000000000000e+00 0.000000000000000e+00
4.312688032641889e-02 3.106339484036565e-02 -1.074644499296300e-02
-1.375102359602559e-02 5.558655606753329e-02 -9.590766921396380e-03
0.000000000000000e+00 0.000000000000000e+00 0.000000000000000e+00
0.000000000000000e+00 0.000000000000000e+00 0.000000000000000e+00
-1.013223284933411e-02 5.435904045243851e-02 -6.278296630824332e-03
1.730369355410296e-02 5.779199716576649e-03 3.147521344059637e-03
0.000000000000000e+00 0.000000000000000e+00 0.000000000000000e+00
1.752559658345205e-02 9.064347161174763e-03 -4.968574419945234e-03
4.827839950152912e-02 3.207782269530168e-02 -7.823914211226307e-03
-1.206621457580671e-02 1.088854914459299e-02 -6.633772597352330e-03
0.000000000000000e+00 0.000000000000000e+00 0.000000000000000e+00
-1.042477185238921e-02 1.386416245697756e-02 -3.938860774149689e-03
-1.130060772009665e-02 5.718744748785467e-02 -5.997433878938115e-03
1.584374831183244e-02 3.969602221188860e-02 -5.783993102969064e-03
0.000000000000000e+00 0.000000000000000e+00 0.000000000000000e+00
0.000000000000000e+00 0.000000000000000e+00 0.000000000000000e+00
1.601483996711003e-02 3.988669770570007e-02 -8.205776760536142e-03
2.426428195098067e-01 1.455285572265394e-01 -4.951030049800929e-02
1.267771666216181e-01 9.866345471466585e-02 -2.916117695774612e-02
9.157625862474184e-02 7.635468508688843e-02 -2.939663026122393e-02
1.799523721996888e-01 1.098274642483090e-01 -5.103621196258430e-02
2.259880896364540e-01 2.450471161536764e-01 -7.516793485065940e-03
6.772084328002335e-02 1.715961797490311e-01 -7.020528239286944e-03
4.851708215023871e-02 1.332414911699654e-01 -5.171909870062277e-03
1.706606962910469e-01 1.859514100454483e-01 -2.233524635930513e-02
1.822738447938620e-01 1.283048996528834e-01 -3.997601794631598e-02
1.082376638624850e-01 8.879935055531997e-02 -2.940487838376356e-02
1.339433354277105e-01 9.793327163953103e-02 -3.942660265388806e-02
2.075572829089653e-01 1.288185599833822e-01 -5.054695001623431e-02
1.402080610587069e-01 2.182129293080373e-01 -4.308846994898120e-03
5.808202002617543e-02 1.543407477838986e-01 -6.243186566433278e-03
1.042717996950182e-01 1.678187092502431e-01 -8.782500093342090e-03
1.951960748389142e-01 2.147774002409745e-01 -1.465582717760798e-02
2.347833564011640e-01 1.949356736298338e-01 -2.881614028594499e-02
9.629468897896884e-02 1.352365476599333e-01 -1.690099147631215e-02
6.979504378453388e-02 1.044959616338887e-01 -1.747229148572528e-02
1.749849191003074e-01 1.475401097225032e-01 -3.702024436530224e-02
1.267771666216181e-01 9.866345471466585e-02 -2.916117695774612e-02
4.312688032641889e-02 3.106339484036565e-02 -1.074644499296300e-02
3.183900440654212e-02 2.742316786661499e-02 -1.313466413522743e-02
9.157625862474184e-02 7.635468508688843e-02 -2.939663026122393e-02
6.772084328002335e-02 1.715961797490311e-01 -7.020528239286944e-03
-1.013223284933411e-02 5.435904045243851e-02 -6.278296630824332e-03
-7.699881886236631e-03 4.669540305982705e-02 -4.126887298365707e-03
4.851708215023871e-02 1.332414911699654e-01 -5.171909870062277e-03
8.007829176933826e-02 6.415109753942673e-02 -1.917299431703081e-02
3.752080471896640e-02 3.030718859857619e-02 -1.183016440633568e-02
5.756672308307659e-02 5.200141902927662e-02 -2.077257426620331e-02
1.082376638624850e-01 8.879935055531997e-02 -2.940487838376356e-02
1.551147721236093e-02 1.135615324446108e-01 -8.662734302571591e-03
-8.361976830711843e-03 5.129426679875913e-02 -6.428482230536756e-03
1.066931542676614e-02 8.919458125769604e-02 -5.065735324999461e-03
5.808202002617543e-02 1.543407477838986e-01 -6.243186566433278e-03
9.629468897896884e-02 1.352365476599333e-01 -1.690099147631215e-02
1.601483996711003e-02 3.988669770570007e-02 -8.205776760536142e-03
1.172961205557612e-02 3.549810120263296e-02 -8.479873279217030e-03
6.979504378453388e-02 1.044959616338887e-01 -1.747229148572528e-02
4.312688032641889e-02 3.106339484036565e-02 -1.074644499296300e-02
0.000000000000000e+00 0.000000000000000e+00 0.000000000000000e+00
0.000000000000000e+00 0.000000000000000e+00 0.000000000000000e+00
3.183900440654212e-02 2.742316786661499e-02 -1.313466413522743e-02
-1.013223284933411e-02 5.435904045243851e-02 -6.278296630824332e-03
0.000000000000000e+00 0.000000000000000e+00 0.000000000000000e+00
0.000000000000000e+00 0.000000000000000e+00 0.000000000000000e+00
-7.699881886236631e-03 4.669540305982705e-02 -4.126887298365707e-03
1.752559658345205e-02 9.064347161174763e-03 -4.968574419945234e-03
0.000000000000000e+00 0.000000000000000e+00 0.000000000000000e+00
1.373597395879691e-02 9.188985602855505e-03 -6.060226015161749e-03
3.752080471896640e-02 3.030718859857619e-02 -1.183016440633568e-02
-1.042477185238921e-02 1.386416245697756e-02 -3.938860774149689e-03
0.000000000000000e+00 0.000000000000000e+00 0.000000000000000e+00
-9.485786836732452e-03 1.401120952382789e-02 -2.334741486698798e-03
-8.361976830711843e-03 5.129426679875913e-02 -6.428482230536756e-03
1.601483996711003e-02 3.988669770570007e-02 -8.205776760536142e-03
0.000000000000000e+00 0.000000000000000e+00 0.000000000000000e+00
0.000000000000000e+00 0.000000000000000e+00 0.000000000000000e+00
1.172961205557612e-02 3.549810120263296e-02 -8.479873279217030e-03
1.799523721996888e-01 1.098274642483090e-01 -5.103621196258430e-02
9.157625862474184e-02 7.635468508688843e-02 -2.939663026122393e-02
6.569747373187246e-02 4.288256841453197e-02 -3.220634584510643e-02
1.401060686635500e-01 6.898929751901860e-02 -5.324166982080661e-02
1.706606962910469e-01 1.859514100454483e-01 -2.233524635930513e-02
4.851708215023871e-02 1.332414911699654e-01 -5.171909870062277e-03
3.106782142238484e-02 9.176229323769643e-02 -5.483114411074794e-03
1.326496791140269e-01 1.355031269687640e-01 -2.817073445194967e-02
1.339433354277105e-01 9.793327163953103e-02 -3.942660265388806e-02
7.790369922764216e-02 6.144248893620913e-02 -3.025482895317369e-02
1.004560581686255e-01 5.949632907917668e-02 -4.147236618504144e-02
1.584340361606194e-01 8.972199165344162e-02 -5.181353628934540e-02
1.042717996950182e-01 1.678187092502431e-01 -8.782500093342090e-03
4.103580640003150e-02 1.119824140231223e-01 -5.410000116241271e-03
7.636252004904223e-02 1.199221135175195e-01 -1.349529449264556e-02
1.503923577168877e-01 1.588580485483896e-01 -2.622480541320048e-02
1.749849191003074e-01 1.475401097225032e-01 -3.702024436530224e-02
6.979504378453388e-02 1.044959616338887e-01 -1.747229148572528e-02
4.799398548958438e-02 6.714875786980393e-02 -1.855353990416827e-02
1.364308755959900e-01 1.021565224783003e-01 -4.073324549767444e-02
9.157625862474184e-02 7.635468508688843e-02 -2.939663026122393e-02
3.183900440654212e-02 2.742316786661499e-02 -1.313466413522743e-02
2.079599268306000e-02 8.529049106357421e-03 -1.724696264092593e-02
6.569747373187246e-02 4.288256841453197e-02 -3.220634584510643e-02
4.851708215023871e-02 1.332414911699654e-01 -5.171909870062277e-03
-7.699881886236631e-03 4.669540305982705e-02 -4.126887298365707e-03
-7.350218851223158e-03 2.229262522263262e-02 4.120677100944353e-04
3.106782142238484e-02 9.176229323769643e-02 -5.483114411074794e-03
5.756672308307659e-02 5.200141902927662e-02 -2.077257426620331e-02
2.526410156576243e-02 2.107454924961271e-02 -1.469007615081279e-02
3.953157082133290e-02 2.467683065486409e-02 -2.498359348988925e-02
7.790369922764216e-02 6.144248893620913e-02 -3.025482895317369e-02
1.066931542676614e-02 8.919458125769604e-02 -5.065735324999461e-03
-7.353685049746256e-03 3.749561320792796e-02 -1.640722655430805e-03
3.143990459492015e-03 5.579363266731563e-02 -1.821606344233508e-03
4.103580640003150e-02 1.119824140231223e-01 -5.410000116241271e-03
6.979504378453388e-02 1.044959616338887e-01 -1.747229148572528e-02
1.172961205557612e-02 3.549810120263296e-02 -8.479873279217030e-03
6.443304167630592e-03 1.419560552650358e-02 -8.431971404405878e-03
4.799398548958438e-02 6.714875786980393e-02 -1.855353990416827e-02
3.183900440654212e-02 2.742316786661499e-02 -1.313466413522743e-02