<?xml version="1.0" ?> 
<!-- 
# vtk DataFile Version 3.0
-->
<VTKFile type="UnstructuredGrid" version="0.1" compressor="vtkZLibDataCompressor" byte_order="LittleEndian">
  <UnstructuredGrid>
    <FieldData>
      <DataArray type="Float64" Name="TIME" NumberOfTuples="1" format="ascii">
3.000000000000000e+00 
      </DataArray>
    </FieldData>

    <Piece NumberOfPoints="2447" NumberOfCells="267" >
      <Points>
        <DataArray type="Float64" NumberOfComponents="3" format="ascii">
7.000000000000000e-01 0.000000000000000e+00 0.000000000000000e+00
6.062177826489999e-01 3.500000000000000e-01 0.000000000000000e+00
6.062177826489999e-01 3.500000000000000e-01 5.000000000000000e-01
7.000000000000000e-01 0.000000000000000e+00 5.000000000000000e-01
1.000000000000000e+00 0.000000000000000e+00 0.000000000000000e+00
8.660254037839999e-01 5.000000000000000e-01 0.000000000000000e+00
8.660254037839999e-01 5.000000000000000e-01 5.000000000000000e-01
1.000000000000000e+00 0.000000000000000e+00 5.000000000000000e-01
6.062177826489999e-01 3.500000000000000e-01 0.000000000000000e+00
3.500000000000000e-01 6.062177826489999e-01 0.000000000000000e+00
3.500000000000000e-01 6.062177826489999e-01 5.000000000000000e-01
6.062177826489999e-01 3.500000000000000e-01 5.000000000000000e-01
8.660254037839999e-01 5.000000000000000e-01 0.000000000000000e+00
5.000000000000000e-01 8.660254037839999e-01 0.000000000000000e+00
5.000000000000000e-01 8.660254037839999e-01 5.000000000000000e-01
8.660254037839999e-01 5.000000000000000e-01 5.000000000000000e-01
3.500000000000000e-01 6.062177826489999e-01 0.000000000000000e+00
0.000000000000000e+00 7.000000000000000e-01 0.000000000000000e+00
0.000000000000000e+00 7.000000000000000e-01 5.000000000000000e-01
3.500000000000000e-01 6.062177826489999e-01 5.000000000000000e-01
5.000000000000000e-01 8.660254037839999e-01 0.000000000000000e+00
0.000000000000000e+00 1.000000000000000e+00 0.000000000000000e+00
0.000000000000000e+00 1.000000000000000e+00 5.000000000000000e-01
5.000000000000000e-01 8.660254037839999e-01 5.000000000000000e-01
7.000000000000000e-01 0.000000000000000e+00 5.000000000000000e-01
6.062177826489999e-01 3.500000000000000e-01 5.000000000000000e-01
6.062177826489999e-01 3.500000000000000e-01 1.000000000000000e+00
7.000000000000000e-01 0.000000000000000e+00 1.000000000000000e+00
1.000000000000000e+00 0.000000000000000e+00 5.000000000000000e-01
8.660254037839999e-01 5.000000000000000e-01 5.000000000000000e-01
8.660254037839999e-01 5.000000000000000e-01 1.000000000000000e+00
1.000000000000000e+00 0.000000000000000e+00 1.000000000000000e+00
6.062177826489999e-01 3.500000000000000e-01 5.000000000000000e-01
3.500000000000000e-01 6.062177826489999e-01 5.000000000000000e-01
3.500000000000000e-01 6.062177826489999e-01 1.000000000000000e+00
6.062177826489999e-01 3.500000000000000e-01 1.000000000000000e+00
8.660254037839999e-01 5.000000000000000e-01 5.000000000000000e-01
5.000000000000000e-01 8.660254037839999e-01 5.000000000000000e-01
5.000000000000000e-01 8.660254037839999e-01 1.000000000000000e+00
8.660254037839999e-01 5.000000000000000e-01 1.000000000000000e+00
3.500000000000000e-01 6.062177826489999e-01 5.000000000000000e-01
0.000000000000000e+00 7.000000000000000e-01 5.000000000000000e-01
0.000000000000000e+00 7.000000000000000e-01 1.000000000000000e+00
3.500000000000000e-01 6.062177826489999e-01 1.000000000000000e+00
5.000000000000000e-01 8.660254037839999e-01 5.000000000000000e-01
0.000000000000000e+00 1.000000000000000e+00 5.000000000000000e-01
0.000000000000000e+00 1.000000000000000e+00 1.000000000000000e+00
5.000000000000000e-01 8.660254037839999e-01 1.000000000000000e+00
7.000000000000000e-01 0.000000000000000e+00 1.000000000000000e+00
6.062177826489999e-01 3.500000000000000e-01 1.000000000000000e+00
6.062177826489999e-01 3.500000000000000e-01 1.500000000000000e+00
7.000000000000000e-01 0.000000000000000e+00 1.500000000000000e+00
1.000000000000000e+00 0.000000000000000e+00 1.000000000000000e+00
8.660254037839999e-01 5.000000000000000e-01 1.000000000000000e+00
8.660254037839999e-01 5.000000000000000e-01 1.500000000000000e+00
1.000000000000000e+00 0.000000000000000e+00 1.500000000000000e+00
6.062177826489999e-01 3.500000000000000e-01 1.000000000000000e+00
3.500000000000000e-01 6.062177826489999e-01 1.000000000000000e+00
3.500000000000000e-01 6.062177826489999e-01 1.500000000000000e+00
6.062177826489999e-01 3.500000000000000e-01 1.500000000000000e+00
8.660254037839999e-01 5.000000000000000e-01 1.000000000000000e+00
5.000000000000000e-01 8.660254037839999e-01 1.000000000000000e+00
5.000000000000000e-01 8.660254037839999e-01 1.500000000000000e+00
8.660254037839999e-01 5.000000000000000e-01 1.500000000000000e+00
3.500000000000000e-01 6.062177826489999e-01 1.000000000000000e+00
0.000000000000000e+00 7.000000000000000e-01 1.000000000000000e+00
0.000000000000000e+00 7.000000000000000e-01 1.500000000000000e+00
3.500000000000000e-01 6.062177826489999e-01 1.500000000000000e+00
5.000000000000000e-01 8.660254037839999e-01 1.000000000000000e+00
0.000000000000000e+00 1.000000000000000e+00 1.000000000000000e+00
0.000000000000000e+00 1.000000000000000e+00 1.500000000000000e+00
5.000000000000000e-01 8.660254037839999e-01 1.500000000000000e+00
0.000000000000000e+00 0.000000000000000e+00 3.500000000000000e+00
0.000000000000000e+00 0.000000000000000e+00 3.000000000000000e+00
0.000000000000000e+00 3.000000000000000e-01 3.000000000000000e+00
0.000000000000000e+00 3.000000000000000e-01 3.500000000000000e+00
5.000000000000000e-01 0.000000000000000e+00 3.500000000000000e+00
5.000000000000000e-01 0.000000000000000e+00 3.000000000000000e+00
5.000000000000000e-01 3.000000000000000e-01 3.000000000000000e+00
5.000000000000000e-01 3.000000000000000e-01 3.500000000000000e+00
0.000000000000000e+00 0.000000000000000e+00 3.000000000000000e+00
0.000000000000000e+00 0.000000000000000e+00 2.500000000000000e+00
0.000000000000000e+00 3.000000000000000e-01 2.500000000000000e+00
0.000000000000000e+00 3.000000000000000e-01 3.000000000000000e+00
5.000000000000000e-01 0.000000000000000e+00 3.000000000000000e+00
5.000000000000000e-01 0.000000000000000e+00 2.500000000000000e+00
5.000000000000000e-01 3.000000000000000e-01 2.500000000000000e+00
5.000000000000000e-01 3.000000000000000e-01 3.000000000000000e+00
5.000000000000000e-01 0.000000000000000e+00 3.500000000000000e+00
5.000000000000000e-01 0.000000000000000e+00 3.000000000000000e+00
5.000000000000000e-01 3.000000000000000e-01 3.000000000000000e+00
5.000000000000000e-01 3.000000000000000e-01 3.500000000000000e+00
1.000000000000000e+00 0.000000000000000e+00 3.500000000000000e+00
1.000000000000000e+00 0.000000000000000e+00 3.000000000000000e+00
1.000000000000000e+00 3.000000000000000e-01 3.000000000000000e+00
1.000000000000000e+00 3.000000000000000e-01 3.500000000000000e+00
5.000000000000000e-01 0.000000000000000e+00 3.000000000000000e+00
5.000000000000000e-01 0.000000000000000e+00 2.500000000000000e+00
5.000000000000000e-01 3.000000000000000e-01 2.500000000000000e+00
5.000000000000000e-01 3.000000000000000e-01 3.000000000000000e+00
1.000000000000000e+00 0.000000000000000e+00 3.000000000000000e+00
1.000000000000000e+00 0.000000000000000e+00 2.500000000000000e+00
1.000000000000000e+00 3.000000000000000e-01 2.500000000000000e+00
1.000000000000000e+00 3.000000000000000e-01 3.000000000000000e+00
1.000000000000000e+00 0.000000000000000e+00 3.500000000000000e+00
1.000000000000000e+00 0.000000000000000e+00 3.000000000000000e+00
1.000000000000000e+00 3.000000000000000e-01 3.000000000000000e+00
1.000000000000000e+00 3.000000000000000e-01 3.500000000000000e+00
1.500000000000000e+00 0.000000000000000e+00 3.500000000000000e+00
1.500000000000000e+00 0.000000000000000e+00 3.000000000000000e+00
1.500000000000000e+00 3.000000000000000e-01 3.000000000000000e+00
1.500000000000000e+00 3.000000000000000e-01 3.500000000000000e+00
1.000000000000000e+00 0.000000000000000e+00 3.000000000000000e+00
1.000000000000000e+00 0.000000000000000e+00 2.500000000000000e+00
1.000000000000000e+00 3.000000000000000e-01 2.500000000000000e+00
1.000000000000000e+00 3.000000000000000e-01 3.000000000000000e+00
1.500000000000000e+00 0.000000000000000e+00 3.000000000000000e+00
1.500000000000000e+00 0.000000000000000e+00 2.500000000000000e+00
1.500000000000000e+00 3.000000000000000e-01 2.500000000000000e+00
1.500000000000000e+00 3.000000000000000e-01 3.000000000000000e+00
1.500000000000000e+00 0.000000000000000e+00 3.500000000000000e+00
1.500000000000000e+00 0.000000000000000e+00 3.000000000000000e+00
1.500000000000000e+00 3.000000000000000e-01 3.000000000000000e+00
1.500000000000000e+00 3.000000000000000e-01 3.500000000000000e+00
2.000000000000000e+00 0.000000000000000e+00 3.500000000000000e+00
2.000000000000000e+00 0.000000000000000e+00 3.000000000000000e+00
2.000000000000000e+00 3.000000000000000e-01 3.000000000000000e+00
2.000000000000000e+00 3.000000000000000e-01 3.500000000000000e+00
1.500000000000000e+00 0.000000000000000e+00 3.000000000000000e+00
1.500000000000000e+00 0.000000000000000e+00 2.500000000000000e+00
1.500000000000000e+00 3.000000000000000e-01 2.500000000000000e+00
1.500000000000000e+00 3.000000000000000e-01 3.000000000000000e+00
2.000000000000000e+00 0.000000000000000e+00 3.000000000000000e+00
2.000000000000000e+00 0.000000000000000e+00 2.500000000000000e+00
2.000000000000000e+00 3.000000000000000e-01 2.500000000000000e+00
2.000000000000000e+00 3.000000000000000e-01 3.000000000000000e+00
7.000000000000000e-01 0.000000000000000e+00 5.000000000000000e+00
6.062177826489999e-01 3.500000000000000e-01 5.000000000000000e+00
6.062177826489999e-01 3.500000000000000e-01 5.500000000000000e+00
7.000000000000000e-01 0.000000000000000e+00 5.500000000000000e+00
1.000000000000000e+00 0.000000000000000e+00 5.000000000000000e+00
8.660254037839999e-01 5.000000000000000e-01 5.000000000000000e+00
8.660254037839999e-01 5.000000000000000e-01 5.500000000000000e+00
1.000000000000000e+00 0.000000000000000e+00 5.500000000000000e+00
[...]
  <PointData>
        <DataArray type="Float64" Name="displacement" NumberOfComponents="3" format="ascii">
3.354365194413184e-01 1.801386779201532e-01 -2.324496816141469e-02
1.684048010553889e-01 1.011783799382883e-01 -1.976970232631762e-02
1.114014313970646e-01 7.813865792206422e-02 -2.270121115665360e-02
2.596836172735864e-01 1.317236349237719e-01 -3.235219688025721e-02
3.298647016163484e-01 2.991467705672167e-01 2.448261742392503e-02
8.394170949277213e-02 1.850697520615024e-01 -1.255920285783235e-03
4.137370596556188e-02 1.353257942935033e-01 -5.188611402272774e-03
2.290488890273885e-01 2.667553536057973e-01 6.558068286626594e-03
1.684048010553889e-01 1.011783799382883e-01 -1.976970232631762e-02
4.737928313021143e-02 2.261635128411212e-02 -1.315408185957207e-06
3.528881287858716e-02 3.161208563993442e-02 -1.435956952242636e-02
1.114014313970646e-01 7.813865792206422e-02 -2.270121115665360e-02
8.394170949277213e-02 1.850697520615024e-01 -1.255920285783235e-03
-1.546085768276725e-02 3.317545129301293e-02 -1.313196734690882e-02
-5.926471086861312e-03 5.334560758744544e-02 -9.472675938197521e-03
4.137370596556188e-02 1.353257942935033e-01 -5.188611402272774e-03
4.737928313021143e-02 2.261635128411212e-02 -1.315408185957207e-06
0.000000000000000e+00 0.000000000000000e+00 0.000000000000000e+00
0.000000000000000e+00 0.000000000000000e+00 0.000000000000000e+00
3.528881287858716e-02 3.161208563993442e-02 -1.435956952242636e-02
-1.546085768276725e-02 3.317545129301293e-02 -1.313196734690882e-02
0.000000000000000e+00 0.000000000000000e+00 0.000000000000000e+00
0.000000000000000e+00 0.000000000000000e+00 0.000000000000000e+00
-5.926471086861312e-03 5.334560758744544e-02 -9.472675938197521e-03
2.596836172735864e-01 1.317236349237719e-01 -3.235219688025721e-02
1.114014313970646e-01 7.813865792206422e-02 -2.270121115665360e-02
9.281237071450148e-02 8.297649578759064e-02 -1.279986116304432e-02
1.807681576261060e-01 1.251433491289682e-01 -2.733945230245848e-02
2.290488890273885e-01 2.667553536057973e-01 6.558068286626594e-03
4.137370596556188e-02 1.353257942935033e-01 -5.188611402272774e-03
4.523799625210473e-02 1.564384522947575e-01 -8.584005362945225e-03
1.680590643354626e-01 1.959429749561832e-01 4.122364353502312e-03
1.114014313970646e-01 7.813865792206422e-02 -2.270121115665360e-02
3.528881287858716e-02 3.161208563993442e-02 -1.435956952242636e-02
2.560276347220809e-02 1.831145762201929e-02 -5.032912647831983e-03
9.281237071450148e-02 8.297649578759064e-02 -1.279986116304432e-02
4.137370596556188e-02 1.353257942935033e-01 -5.188611402272774e-03
-5.926471086861312e-03 5.334560758744544e-02 -9.472675938197521e-03
-2.259421536640079e-02 2.104102787885829e-02 -7.536401483485499e-03
4.523799625210473e-02 1.564384522947575e-01 -8.584005362945225e-03
3.528881287858716e-02 3.161208563993442e-02 -1.435956952242636e-02
0.000000000000000e+00 0.000000000000000e+00 0.000000000000000e+00
0.000000000000000e+00 0.000000000000000e+00 0.000000000000000e+00
2.560276347220809e-02 1.831145762201929e-02 -5.032912647831983e-03
-5.926471086861312e-03 5.334560758744544e-02 -9.472675938197521e-03
0.000000000000000e+00 0.000000000000000e+00 0.000000000000000e+00
0.000000000000000e+00 0.000000000000000e+00 0.000000000000000e+00
-2.259421536640079e-02 2.104102787885829e-02 -7.536401483485499e-03
1.807681576261060e-01 1.251433491289682e-01 -2.733945230245848e-02
9.281237071450148e-02 8.297649578759064e-02 -1.279986116304432e-02
7.173042524142288e-02 8.863635262107990e-02 -1.404150503397798e-02
1.380397277789966e-01 1.052799771303962e-01 -2.453951612370901e-02
1.680590643354626e-01 1.959429749561832e-01 4.122364353502312e-03
4.523799625210473e-02 1.564384522947575e-01 -8.584005362945225e-03
4.021077256513801e-02 1.220617436894263e-01 -2.911334450759781e-03
1.317776087709920e-01 1.694046648856970e-01 -3.787747621875179e-03
9.281237071450148e-02 8.297649578759064e-02 -1.279986116304432e-02
2.560276347220809e-02 1.831145762201929e-02 -5.032912647831983e-03
3.487264733907901e-02 5.495714843189754e-02 2.825684528112023e-03
7.173042524142288e-02 8.863635262107990e-02 -1.404150503397798e-02
4.523799625210473e-02 1.564384522947575e-01 -8.584005362945225e-03
-2.259421536640079e-02 2.104102787885829e-02 -7.536401483485499e-03
3.317636402985537e-03 8.307751336716131e-02 -1.511195665487394e-02
4.021077256513801e-02 1.220617436894263e-01 -2.911334450759781e-03
2.560276347220809e-02 1.831145762201929e-02 -5.032912647831983e-03
0.000000000000000e+00 0.000000000000000e+00 0.000000000000000e+00
0.000000000000000e+00 0.000000000000000e+00 0.000000000000000e+00
3.487264733907901e-02 5.495714843189754e-02 2.825684528112023e-03
-2.259421536640079e-02 2.104102787885829e-02 -7.536401483485499e-03
0.000000000000000e+00 0.000000000000000e+00 0.000000000000000e+00
0.000000000000000e+00 0.000000000000000e+00 0.000000000000000e+00
3.317636402985537e-03 8.307751336716131e-02 -1.511195665487394e-02
0.000000000000000e+00 0.000000000000000e+00 0.000000000000000e+00
0.000000000000000e+00 0.000000000000000e+00 0.000000000000000e+00
0.000000000000000e+00 0.000000000000000e+00 0.000000000000000e+00
0.000000000000000e+00 0.000000000000000e+00 0.000000000000000e+00
2.544653922104717e-02 8.468111091255226e-02 1.543884520527588e-02
2.395097796978796e-02 5.930616970473863e-02 2.465847755554970e-02
-2.093349161108819e-02 5.623721761727241e-02 -3.674866919891261e-04
-4.756722563379469e-02 7.677086042685909e-02 5.817851762749925e-03
0.000000000000000e+00 0.000000000000000e+00 0.000000000000000e+00
0.000000000000000e+00 0.000000000000000e+00 0.000000000000000e+00
0.000000000000000e+00 0.000000000000000e+00 0.000000000000000e+00
0.000000000000000e+00 0.000000000000000e+00 0.000000000000000e+00
2.395097796978796e-02 5.930616970473863e-02 2.465847755554970e-02
2.600117264582923e-02 9.675455534345595e-03 3.712943598594727e-02
2.167112198405361e-04 3.551885386126697e-03 -8.996467008416432e-04
-2.093349161108819e-02 5.623721761727241e-02 -3.674866919891261e-04
2.544653922104717e-02 8.468111091255226e-02 1.543884520527588e-02
2.395097796978796e-02 5.930616970473863e-02 2.465847755554970e-02
-2.093349161108819e-02 5.623721761727241e-02 -3.674866919891261e-04
-4.756722563379469e-02 7.677086042685909e-02 5.817851762749925e-03
1.708229554292427e-02 2.575359187333484e-01 4.527830130754224e-02
3.159165907153698e-02 1.681823299787453e-01 5.864475200738613e-02
-3.829891944264851e-02 1.522045265590420e-01 -2.482583271485697e-04
-8.342385203464969e-02 2.333791333782446e-01 -5.098350821530344e-03
2.395097796978796e-02 5.930616970473863e-02 2.465847755554970e-02
2.600117264582923e-02 9.675455534345595e-03 3.712943598594727e-02
2.167112198405361e-04 3.551885386126697e-03 -8.996467008416432e-04
-2.093349161108819e-02 5.623721761727241e-02 -3.674866919891261e-04
3.159165907153698e-02 1.681823299787453e-01 5.864475200738613e-02
5.028682875298021e-02 6.213762356719967e-02 7.656242753450625e-02
4.173756183502949e-03 4.391935856230494e-02 6.668679203611265e-03
-3.829891944264851e-02 1.522045265590420e-01 -2.482583271485697e-04
1.708229554292427e-02 2.575359187333484e-01 4.527830130754224e-02
3.159165907153698e-02 1.681823299787453e-01 5.864475200738613e-02
-3.829891944264851e-02 1.522045265590420e-01 -2.482583271485697e-04
-8.342385203464969e-02 2.333791333782446e-01 -5.098350821530344e-03
-9.612484271362323e-03 4.605693270293190e-01 6.120034015264551e-02
2.253962697136562e-02 3.158573543090482e-01 8.412110386511780e-02
-6.024708499303185e-02 2.903742908003821e-01 -2.862013171039349e-03
-1.116368800939502e-01 4.264859293367891e-01 -2.419294173522090e-02
3.159165907153698e-02 1.681823299787453e-01 5.864475200738613e-02
5.028682875298021e-02 6.213762356719967e-02 7.656242753450625e-02
4.173756183502949e-03 4.391935856230494e-02 6.668679203611265e-03
-3.829891944264851e-02 1.522045265590420e-01 -2.482583271485697e-04
2.253962697136562e-02 3.158573543090482e-01 8.412110386511780e-02
5.814201509308586e-02 1.723376428224125e-01 1.080645250965857e-01
-1.049949534214532e-02 1.500366205427909e-01 1.818571052224870e-02
-6.024708499303185e-02 2.903742908003821e-01 -2.862013171039349e-03
-9.612484271362323e-03 4.605693270293190e-01 6.120034015264551e-02
2.253962697136562e-02 3.158573543090482e-01 8.412110386511780e-02
-6.024708499303185e-02 2.903742908003821e-01 -2.862013171039349e-03
-1.116368800939502e-01 4.264859293367891e-01 -2.419294173522090e-02
-4.689755603070175e-02 6.588878903405264e-01 6.028108971656926e-02
1.788196384351794e-03 4.723723680916526e-01 9.697129205056718e-02
-8.216197844915119e-02 4.356113322980187e-01 -9.867090418512088e-03
-1.492153329780493e-01 6.279760705528691e-01 -4.772657670823110e-02
2.253962697136562e-02 3.158573543090482e-01 8.412110386511780e-02
5.814201509308586e-02 1.723376428224125e-01 1.080645250965857e-01
-1.049949534214532e-02 1.500366205427909e-01 1.818571052224870e-02
-6.024708499303185e-02 2.903742908003821e-01 -2.862013171039349e-03
1.788196384351794e-03 4.723723680916526e-01 9.697129205056718e-02
4.477256482492737e-02 2.998591063682374e-01 1.230017407742986e-01
-2.696828131307268e-02 2.737727409524595e-01 2.192499420584792e-02
-8.216197844915119e-02 4.356113322980187e-01 -9.867090418512088e-03
3.866391613697556e-01 2.363925236232760e-01 -4.310526724481883e-02
2.025017569316539e-01 1.441583944096375e-01 -2.067502608092721e-02
1.463078303620477e-01 1.167104930848428e-01 -3.011923279019696e-02
2.718915631183333e-01 1.745539460151492e-01 -4.917326918931733e-02
3.793864817010741e-01 3.598871818403342e-01 4.125368805358010e-02
1.008777461365660e-01 2.362711704669859e-01 6.498467358490634e-03
7.664246049910800e-02 1.948846274911508e-01 -1.541173365323861e-03
2.489368011507126e-01 2.803857877644683e-01 7.118954740519391e-03
2.944655155228024e-01 2.013190061393160e-01 -3.158558310041874e-02
1.767845435751243e-01 1.282554474790306e-01 -2.730984694388556e-02
2.069739303606245e-01 1.526348289234972e-01 -4.007689970289261e-02
3.317312614974621e-01 1.995416265047279e-01 -4.863786282159781e-02
2.421159599603782e-01 3.118395200316227e-01 2.598690779256196e-02
9.088047768898314e-02 2.143283909684305e-01 -5.472952981624776e-04
1.557767698146348e-01 2.485354031253446e-01 6.378969967207846e-03
3.001127677458278e-01 3.172310752626322e-01 1.843636983925732e-02
3.760895399916936e-01 3.020458621917619e-01 -2.907856161412234e-03
1.519392212420010e-01 1.895630135659570e-01 -5.860966840601408e-03
1.103512367738407e-01 1.557478534580242e-01 -1.419017121129999e-02
2.612024567930455e-01 2.266110225459441e-01 -2.129365117708997e-02
2.025017569316539e-01 1.441583944096375e-01 -2.067502608092721e-02
6.126353426865584e-02 3.407668594749844e-02 6.801311557117696e-04
5.177009970725433e-02 3.652410095820582e-02 -1.204743521630935e-02
1.463078303620477e-01 1.167104930848428e-01 -3.011923279019696e-02
1.008777461365660e-01 2.362711704669859e-01 6.498467358490634e-03
-9.672414520787936e-03 6.077528838030689e-02 -9.895688159929632e-03
-9.333342539197084e-03 6.095157291399531e-02 -6.553265247961560e-03
7.664246049910800e-02 1.948846274911508e-01 -1.541173365323861e-03
1.205694541052524e-01 8.399956286609521e-02 -8.690736244036833e-03
6.030003947953794e-02 3.780352150281188e-02 -8.686056465236959e-03
9.404970755391637e-02 7.558023146419668e-02 -2.053381421102995e-02
1.767845435751243e-01 1.282554474790306e-01 -2.730984694388556e-02
2.210994904456417e-02 1.433772350687212e-01 -3.821676777665686e-03
-8.559338446791156e-03 6.351993919952521e-02 -6.324242287906360e-03
1.912188796415783e-02 1.284676550037166e-01 -6.928669274209463e-03
9.088047768898314e-02 2.143283909684305e-01 -5.472952981624776e-04
1.519392212420010e-01 1.895630135659570e-01 -5.860966840601408e-03
2.447517358454150e-02 4.409057739042423e-02 -5.293172530296675e-03
2.079274595206213e-02 4.543700821769357e-02 -8.839324700257235e-03
1.103512367738407e-01 1.557478534580242e-01 -1.419017121129999e-02
6.126353426865584e-02 3.407668594749844e-02 6.801311557117696e-04
0.000000000000000e+00 0.000000000000000e+00 0.000000000000000e+00
0.000000000000000e+00 0.000000000000000e+00 0.000000000000000e+00
5.177009970725433e-02 3.652410095820582e-02 -1.204743521630935e-02
-9.672414520787936e-03 6.077528838030689e-02 -9.895688159929632e-03
0.000000000000000e+00 0.000000000000000e+00 0.000000000000000e+00
0.000000000000000e+00 0.000000000000000e+00 0.000000000000000e+00
-9.333342539197084e-03 6.095157291399531e-02 -6.553265247961560e-03
2.314645308759272e-02 6.719253007553869e-03 4.636032860608528e-03
0.000000000000000e+00 0.000000000000000e+00 0.000000000000000e+00
2.144681196805866e-02 1.077306988430104e-02 -6.009848554094767e-03
6.030003947953794e-02 3.780352150281188e-02 -8.686056465236959e-03
-1.072326523067713e-02 1.048891572948053e-02 -7.034616648247698e-03
0.000000000000000e+00 0.000000000000000e+00 0.000000000000000e+00
-1.057685722079701e-02 1.496680695484651e-02 -4.909637114411366e-03
-8.559338446791156e-03 6.351993919952521e-02 -6.324242287906360e-03
2.447517358454150e-02 4.409057739042423e-02 -5.293172530296675e-03
0.000000000000000e+00 0.000000000000000e+00 0.000000000000000e+00
0.000000000000000e+00 0.000000000000000e+00 0.000000000000000e+00
2.079274595206213e-02 4.543700821769357e-02 -8.839324700257235e-03
2.718915631183333e-01 1.745539460151492e-01 -4.917326918931733e-02
1.463078303620477e-01 1.167104930848428e-01 -3.011923279019696e-02
1.015295631579053e-01 8.909583140930254e-02 -2.828458027075694e-02
1.971418842427771e-01 1.283343318472516e-01 -4.969985870714673e-02
2.489368011507126e-01 2.803857877644683e-01 7.118954740519391e-03
7.664246049910800e-02 1.948846274911508e-01 -1.541173365323861e-03
5.276482066673718e-02 1.506423512948261e-01 -7.902101940665352e-04
1.849850839170485e-01 2.099519665905286e-01 -1.617369314049727e-02
2.069739303606245e-01 1.526348289234972e-01 -4.007689970289261e-02
1.216786783379234e-01 1.038126425453315e-01 -2.919747634654239e-02
1.473148682044748e-01 1.141270137530256e-01 -3.772426552468015e-02
2.287058203164204e-01 1.516096182567010e-01 -4.974760919770504e-02
1.557767698146348e-01 2.485354031253446e-01 6.378969967207846e-03
6.373285389522960e-02 1.747481193520619e-01 -1.117857089186486e-03
1.132576671525117e-01 1.892121860619067e-01 -2.512001489894604e-03
2.124680287362698e-01 2.433514282144395e-01 -5.145434247321288e-03
2.612024567930455e-01 2.266110225459441e-01 -2.129365117708997e-02
1.103512367738407e-01 1.557478534580242e-01 -1.419017121129999e-02
7.694981014745084e-02 1.194939830638342e-01 -1.476213125466353e-02
1.905285022034576e-01 1.688086297213329e-01 -3.332203814218117e-02
1.463078303620477e-01 1.167104930848428e-01 -3.011923279019696e-02
5.177009970725433e-02 3.652410095820582e-02 -1.204743521630935e-02
3.607710326829974e-02 3.215755241728517e-02 -1.350830013205346e-02
1.015295631579053e-01 8.909583140930254e-02 -2.828458027075694e-02
7.664246049910800e-02 1.948846274911508e-01 -1.541173365323861e-03
-9.333342539197084e-03 6.095157291399531e-02 -6.553265247961560e-03
-8.930281538075882e-03 5.319685149703608e-02 -3.531833718267434e-03
5.276482066673718e-02 1.506423512948261e-01 -7.902101940665352e-04
9.404970755391637e-02 7.558023146419668e-02 -2.053381421102995e-02
4.352221672382667e-02 3.551129922464664e-02 -1.277430896628688e-02
6.442245393090297e-02 6.072369725209631e-02 -2.051798151168438e-02
1.216786783379234e-01 1.038126425453315e-01 -2.919747634654239e-02
1.912188796415783e-02 1.284676550037166e-01 -6.928669274209463e-03
-8.931457062646855e-03 5.809629625693988e-02 -6.334155326603282e-03
1.132112722331421e-02 1.012764700013184e-01 -2.779884068177740e-03
6.373285389522960e-02 1.747481193520619e-01 -1.117857089186486e-03
1.103512367738407e-01 1.557478534580242e-01 -1.419017121129999e-02
2.079274595206213e-02 4.543700821769357e-02 -8.839324700257235e-03
1.322469552802881e-02 4.089786544207127e-02 -8.356541766385926e-03
7.694981014745084e-02 1.194939830638342e-01 -1.476213125466353e-02
5.177009970725433e-02 3.652410095820582e-02 -1.204743521630935e-02
0.000000000000000e+00 0.000000000000000e+00 0.000000000000000e+00
0.000000000000000e+00 0.000000000000000e+00 0.000000000000000e+00
3.607710326829974e-02 3.215755241728517e-02 -1.350830013205346e-02
-9.333342539197084e-03 6.095157291399531e-02 -6.553265247961560e-03
0.000000000000000e+00 0.000000000000000e+00 0.000000000000000e+00
0.000000000000000e+00 0.000000000000000e+00 0.000000000000000e+00
-8.930281538075882e-03 5.319685149703608e-02 -3.531833718267434e-03
2.144681196805866e-02 1.077306988430104e-02 -6.009848554094767e-03
0.000000000000000e+00 0.000000000000000e+00 0.000000000000000e+00
1.579296386936095e-02 1.086143765444271e-02 -6.556536283674302e-03
4.352221672382667e-02 3.551129922464664e-02 -1.277430896628688e-02
-1.057685722079701e-02 1.496680695484651e-02 -4.909637114411366e-03
0.000000000000000e+00 0.000000000000000e+00 0.000000000000000e+00
-1.073853990760354e-02 1.599433838237410e-02 -2.478187947227213e-03
-8.931457062646855e-03 5.809629625693988e-02 -6.334155326603282e-03
2.079274595206213e-02 4.543700821769357e-02 -8.839324700257235e-03
0.000000000000000e+00 0.000000000000000e+00 0.000000000000000e+00
0.000000000000000e+00 0.000000000000000e+00 0.000000000000000e+00
1.322469552802881e-02 4.089786544207127e-02 -8.356541766385926e-03
1.971418842427771e-01 1.283343318472516e-01 -4.969985870714673e-02
1.015295631579053e-01 8.909583140930254e-02 -2.828458027075694e-02
7.278265312102533e-02 5.291092598971579e-02 -3.045113523218942e-02
1.535571783217748e-01 8.306145800572619e-02 -5.117717364002451e-02
1.849850839170485e-01 2.099519665905286e-01 -1.617369314049727e-02
5.276482066673718e-02 1.506423512948261e-01 -7.902101940665352e-04
3.353765539739249e-02 1.061621258275788e-01 -1.738088262329781e-03
1.440588345846725e-01 1.547711073281621e-01 -2.360810353250068e-02
1.473148682044748e-01 1.141270137530256e-01 -3.772426552468015e-02
8.607292133665234e-02 7.252624729849887e-02 -2.869444218660706e-02
1.105386730264606e-01 7.194212657166328e-02 -3.929952378048541e-02
1.732323078109080e-01 1.055599948674625e-01 -4.999145237802663e-02
1.132576671525117e-01 1.892121860619067e-01 -2.512001489894604e-03
4.442673967348386e-02 1.275004863450211e-01 -1.456688900396241e-03
8.306316838244859e-02 1.371815966978553e-01 -8.875475884083699e-03
1.629693004874286e-01 1.799703392012955e-01 -2.135045003081863e-02
1.905285022034576e-01 1.688086297213329e-01 -3.332203814218117e-02
7.694981014745084e-02 1.194939830638342e-01 -1.476213125466353e-02
5.275084451945761e-02 7.940698862627696e-02 -1.579532107959825e-02
1.489160021239054e-01 1.188216423376525e-01 -3.740554735384634e-02
1.015295631579053e-01 8.909583140930254e-02 -2.828458027075694e-02
3.607710326829974e-02 3.215755241728517e-02 -1.350830013205346e-02
2.328043757521165e-02 1.187582701462271e-02 -1.725318170050543e-02
7.278265312102533e-02 5.291092598971579e-02 -3.045113523218942e-02
5.276482066673718e-02 1.506423512948261e-01 -7.902101940665352e-04
-8.930281538075882e-03 5.319685149703608e-02 -3.531833718267434e-03
-9.334221995811007e-03 2.781176529137581e-02 1.594292369142160e-03
3.353765539739249e-02 1.061621258275788e-01 -1.738088262329781e-03
6.442245393090297e-02 6.072369725209631e-02 -2.051798151168438e-02
2.856182558552321e-02 2.519380857892116e-02 -1.474167165845117e-02
4.402869105707516e-02 3.153569305267285e-02 -2.412774838935354e-02
8.607292133665234e-02 7.252624729849887e-02 -2.869444218660706e-02
1.132112722331421e-02 1.012764700013184e-01 -2.779884068177740e-03
-8.896842581368121e-03 4.361051458762136e-02 -7.147473395369531e-04
2.562584350955668e-03 6.606068512704689e-02 4.705567473772372e-04
4.442673967348386e-02 1.275004863450211e-01 -1.456688900396241e-03
7.694981014745084e-02 1.194939830638342e-01 -1.476213125466353e-02
1.322469552802881e-02 4.089786544207127e-02 -8.356541766385926e-03
6.621711634346759e-03 1.850333737472155e-02 -7.799253882225904e-03
5.275084451945761e-02 7.940698862627696e-02 -1.579532107959825e-02
3.607710326829974e-02 3.215755241728517e-02 -1.350830013205346e-02