<?xml version="1.0" ?> 
<!-- 
# vtk DataFile Version 3.0
-->
<VTKFile type="UnstructuredGrid" version="0.1" compressor="vtkZLibDataCompressor" byte_order="LittleEndian">
  <UnstructuredGrid>
    <FieldData>
      <DataArray type="Float64" Name="TIME" NumberOfTuples="1" format="ascii">
3.000000000000001e-01 
      </DataArray>
    </FieldData>

    <Piece NumberOfPoints="40" NumberOfCells="10" >
      <Points>
        <DataArray type="Float64" NumberOfComponents="3" format="ascii">
6.876644452187053e-01 4.996174644486021e-01 0.000000000000000e+00
8.090169943749475e-01 5.877852522924731e-01 0.000000000000000e+00
7.071067811865475e-01 7.071067811865475e-01 0.000000000000000e+00
6.010407640085653e-01 6.010407640085653e-01 0.000000000000000e+00
7.573555455601125e-01 3.858919247786147e-01 0.000000000000000e+00
8.910065241883678e-01 4.539904997395467e-01 0.000000000000000e+00
8.090169943749475e-01 5.877852522924731e-01 0.000000000000000e+00
6.876644452187053e-01 4.996174644486021e-01 0.000000000000000e+00
8.083980388508805e-01 2.626644452187051e-01 0.000000000000000e+00
9.510565162951534e-01 3.090169943749475e-01 0.000000000000000e+00
8.910065241883678e-01 4.539904997395467e-01 0.000000000000000e+00
7.573555455601125e-01 3.858919247786147e-01 0.000000000000000e+00
8.395350895058671e-01 1.329692952841961e-01 0.000000000000000e+00
9.876883405951378e-01 1.564344650402309e-01 0.000000000000000e+00
9.510565162951534e-01 3.090169943749475e-01 0.000000000000000e+00
8.083980388508805e-01 2.626644452187051e-01 0.000000000000000e+00
8.500000000000000e-01 0.000000000000000e+00 0.000000000000000e+00
1.000000000000000e+00 0.000000000000000e+00 0.000000000000000e+00
9.876883405951378e-01 1.564344650402309e-01 0.000000000000000e+00
8.395350895058671e-01 1.329692952841961e-01 0.000000000000000e+00
5.663118960624631e-01 4.114496766047310e-01 0.000000000000000e+00
6.876644452187053e-01 4.996174644486021e-01 0.000000000000000e+00
6.010407640085653e-01 6.010407640085653e-01 0.000000000000000e+00
4.949747468305832e-01 4.949747468305832e-01 0.000000000000000e+00
6.237045669318574e-01 3.177933498176827e-01 0.000000000000000e+00
7.573555455601125e-01 3.858919247786147e-01 0.000000000000000e+00
6.876644452187053e-01 4.996174644486021e-01 0.000000000000000e+00
5.663118960624631e-01 4.114496766047310e-01 0.000000000000000e+00
6.657395614066075e-01 2.163118960624630e-01 0.000000000000000e+00
8.083980388508805e-01 2.626644452187051e-01 0.000000000000000e+00
7.573555455601125e-01 3.858919247786147e-01 0.000000000000000e+00
6.237045669318574e-01 3.177933498176827e-01 0.000000000000000e+00
6.913818384165964e-01 1.095041255281615e-01 0.000000000000000e+00
8.395350895058671e-01 1.329692952841961e-01 0.000000000000000e+00
8.083980388508805e-01 2.626644452187051e-01 0.000000000000000e+00
6.657395614066075e-01 2.163118960624630e-01 0.000000000000000e+00
7.000000000000000e-01 0.000000000000000e+00 0.000000000000000e+00
8.500000000000000e-01 0.000000000000000e+00 0.000000000000000e+00
8.395350895058671e-01 1.329692952841961e-01 0.000000000000000e+00
6.913818384165964e-01 1.095041255281615e-01 0.000000000000000e+00
        </DataArray>
      </Points>

      <Cells>
        <DataArray type="Int32" Name="connectivity" format="ascii">
0 1 2 3 4 5 6 7 8 9 10 11 12 13 14 15 16 17 18 19 20 21 22 23 24 25 26 27 28 29 30 31 32 33 34 35 36 37 38 39 
        </DataArray>
        <DataArray type="Int32" Name="offsets" format="ascii">
4 8 12 16 20 24 28 32 36 40 
        </DataArray>
        <DataArray type="UInt8" Name="types" format="ascii">
9 9 9 9 9 9 9 9 9 9 
        </DataArray>
      </Cells>

  <PointData>
        <DataArray type="Float64" Name="poronopencond_lambda" NumberOfComponents="2" format="ascii">
0.000000000000000e+00 0.000000000000000e+00
3.774189357550614e-04 2.741997783940628e-04
4.127323454547785e-04 4.127232639820106e-04
0.000000000000000e+00 0.000000000000000e+00
0.000000000000000e+00 0.000000000000000e+00
3.111193369687040e-04 1.585143426079199e-04
3.774189357550614e-04 2.741997783940628e-04
0.000000000000000e+00 0.000000000000000e+00
0.000000000000000e+00 0.000000000000000e+00
2.210595188919481e-04 7.182163094852222e-05
3.111193369687040e-04 1.585143426079199e-04
0.000000000000000e+00 0.000000000000000e+00
0.000000000000000e+00 0.000000000000000e+00
1.139996035412672e-04 1.805441981442812e-05
2.210595188919481e-04 7.182163094852222e-05
0.000000000000000e+00 0.000000000000000e+00
0.000000000000000e+00 0.000000000000000e+00
3.554069490017071e-05 2.796924947152689e-06
1.139996035412672e-04 1.805441981442812e-05
0.000000000000000e+00 0.000000000000000e+00
-3.757771295824017e-04 -2.730097749724544e-04
0.000000000000000e+00 0.000000000000000e+00
0.000000000000000e+00 0.000000000000000e+00
-4.111108609116275e-04 -4.111058158165747e-04
-3.104736462344922e-04 -1.581874421695430e-04
0.000000000000000e+00 0.000000000000000e+00
0.000000000000000e+00 0.000000000000000e+00
-3.757771295824017e-04 -2.730097749724544e-04
-2.210636881798673e-04 -7.182447191269037e-05
0.000000000000000e+00 0.000000000000000e+00
0.000000000000000e+00 0.000000000000000e+00
-3.104736462344922e-04 -1.581874421695430e-04
-1.154539672834442e-04 -1.828497560731977e-05
0.000000000000000e+00 0.000000000000000e+00
0.000000000000000e+00 0.000000000000000e+00
-2.210636881798673e-04 -7.182447191269037e-05
-4.223689959569554e-05 -3.323771210807830e-06
0.000000000000000e+00 0.000000000000000e+00
0.000000000000000e+00 0.000000000000000e+00
-1.154539672834442e-04 -1.828497560731977e-05
        </DataArray>
      </PointData>

    </Piece>
  </UnstructuredGrid>
</VTKFile>
