<?xml version="1.0" ?> 
<!-- 
# vtk DataFile Version 3.0
-->
<VTKFile type="UnstructuredGrid" version="0.1" compressor="vtkZLibDataCompressor" byte_order="LittleEndian">
  <UnstructuredGrid>
    <FieldData>
      <DataArray type="Float64" Name="TIME" NumberOfTuples="1" format="ascii">
3.000000000000001e-01 
      </DataArray>
    </FieldData>

    <Piece NumberOfPoints="40" NumberOfCells="10" >
      <Points>
        <DataArray type="Float64" NumberOfComponents="3" format="ascii">
1.329692952841962e-01 8.395350895058671e-01 0.000000000000000e+00
1.564344650402308e-01 9.876883405951378e-01 0.000000000000000e+00
0.000000000000000e+00 1.000000000000000e+00 0.000000000000000e+00
0.000000000000000e+00 8.500000000000000e-01 0.000000000000000e+00
2.626644452187051e-01 8.083980388508804e-01 0.000000000000000e+00
3.090169943749473e-01 9.510565162951534e-01 0.000000000000000e+00
1.564344650402308e-01 9.876883405951378e-01 0.000000000000000e+00
1.329692952841962e-01 8.395350895058671e-01 0.000000000000000e+00
3.858919247786148e-01 7.573555455601125e-01 0.000000000000000e+00
4.539904997395467e-01 8.910065241883678e-01 0.000000000000000e+00
3.090169943749473e-01 9.510565162951534e-01 0.000000000000000e+00
2.626644452187051e-01 8.083980388508804e-01 0.000000000000000e+00
4.996174644486022e-01 6.876644452187053e-01 0.000000000000000e+00
5.877852522924731e-01 8.090169943749475e-01 0.000000000000000e+00
4.539904997395467e-01 8.910065241883678e-01 0.000000000000000e+00
3.858919247786148e-01 7.573555455601125e-01 0.000000000000000e+00
6.010407640085653e-01 6.010407640085653e-01 0.000000000000000e+00
7.071067811865475e-01 7.071067811865475e-01 0.000000000000000e+00
5.877852522924731e-01 8.090169943749475e-01 0.000000000000000e+00
4.996174644486022e-01 6.876644452187053e-01 0.000000000000000e+00
1.095041255281616e-01 6.913818384165964e-01 0.000000000000000e+00
1.329692952841962e-01 8.395350895058671e-01 0.000000000000000e+00
0.000000000000000e+00 8.500000000000000e-01 0.000000000000000e+00
0.000000000000000e+00 7.000000000000000e-01 0.000000000000000e+00
2.163118960624632e-01 6.657395614066074e-01 0.000000000000000e+00
2.626644452187051e-01 8.083980388508804e-01 0.000000000000000e+00
1.329692952841962e-01 8.395350895058671e-01 0.000000000000000e+00
1.095041255281616e-01 6.913818384165964e-01 0.000000000000000e+00
3.177933498176827e-01 6.237045669318574e-01 0.000000000000000e+00
3.858919247786148e-01 7.573555455601125e-01 0.000000000000000e+00
2.626644452187051e-01 8.083980388508804e-01 0.000000000000000e+00
2.163118960624632e-01 6.657395614066074e-01 0.000000000000000e+00
4.114496766047312e-01 5.663118960624630e-01 0.000000000000000e+00
4.996174644486022e-01 6.876644452187053e-01 0.000000000000000e+00
3.858919247786148e-01 7.573555455601125e-01 0.000000000000000e+00
3.177933498176827e-01 6.237045669318574e-01 0.000000000000000e+00
4.949747468305832e-01 4.949747468305832e-01 0.000000000000000e+00
6.010407640085653e-01 6.010407640085653e-01 0.000000000000000e+00
4.996174644486022e-01 6.876644452187053e-01 0.000000000000000e+00
4.114496766047312e-01 5.663118960624630e-01 0.000000000000000e+00
        </DataArray>
      </Points>

      <Cells>
        <DataArray type="Int32" Name="connectivity" format="ascii">
0 1 2 3 4 5 6 7 8 9 10 11 12 13 14 15 16 17 18 19 20 21 22 23 24 25 26 27 28 29 30 31 32 33 34 35 36 37 38 39 
        </DataArray>
        <DataArray type="Int32" Name="offsets" format="ascii">
4 8 12 16 20 24 28 32 36 40 
        </DataArray>
        <DataArray type="UInt8" Name="types" format="ascii">
9 9 9 9 9 9 9 9 9 9 
        </DataArray>
      </Cells>

  <PointData>
        <DataArray type="Float64" Name="poronopencond_lambda" NumberOfComponents="2" format="ascii">
0.000000000000000e+00 0.000000000000000e+00
1.627200436632590e-04 1.027597722514020e-03
8.620531966153000e-05 1.095896495357435e-03
0.000000000000000e+00 0.000000000000000e+00
0.000000000000000e+00 0.000000000000000e+00
2.905741214949071e-04 8.943679992674001e-04
1.627200436632590e-04 1.027597722514020e-03
0.000000000000000e+00 0.000000000000000e+00
0.000000000000000e+00 0.000000000000000e+00
3.726123225332021e-04 7.313173119846278e-04
2.905741214949071e-04 8.943679992674001e-04
0.000000000000000e+00 0.000000000000000e+00
0.000000000000000e+00 0.000000000000000e+00
4.132932693494352e-04 5.688503855083091e-04
3.726123225332021e-04 7.313173119846278e-04
0.000000000000000e+00 0.000000000000000e+00
0.000000000000000e+00 0.000000000000000e+00
4.127323454547785e-04 4.127232639820106e-04
4.132932693494352e-04 5.688503855083091e-04
0.000000000000000e+00 0.000000000000000e+00
-1.686744617329382e-04 -1.065109168714222e-03
0.000000000000000e+00 0.000000000000000e+00
0.000000000000000e+00 0.000000000000000e+00
-9.302512027413035e-05 -1.182197937152810e-03
-2.897939919505560e-04 -8.919714866878867e-04
0.000000000000000e+00 0.000000000000000e+00
0.000000000000000e+00 0.000000000000000e+00
-1.686744617329382e-04 -1.065109168714222e-03
-3.710052514048073e-04 -7.281712466390026e-04
0.000000000000000e+00 0.000000000000000e+00
0.000000000000000e+00 0.000000000000000e+00
-2.897939919505560e-04 -8.919714866878867e-04
-4.100810684039070e-04 -5.644349068545677e-04
0.000000000000000e+00 0.000000000000000e+00
0.000000000000000e+00 0.000000000000000e+00
-3.710052514048073e-04 -7.281712466390026e-04
-4.111108609116275e-04 -4.111058158165747e-04
0.000000000000000e+00 0.000000000000000e+00
0.000000000000000e+00 0.000000000000000e+00
-4.100810684039070e-04 -5.644349068545677e-04
        </DataArray>
      </PointData>

    </Piece>
  </UnstructuredGrid>
</VTKFile>
