<?xml version="1.0" ?> 
<!-- 
# vtk DataFile Version 3.0
-->
<VTKFile type="UnstructuredGrid" version="0.1" compressor="vtkZLibDataCompressor" byte_order="LittleEndian">
  <UnstructuredGrid>
    <FieldData>
      <DataArray type="Float64" Name="TIME" NumberOfTuples="1" format="ascii">
1.000000000000000e+00 
      </DataArray>
    </FieldData>

    <Piece NumberOfPoints="224" NumberOfCells="28" >
      <Points>
        <DataArray type="Float64" NumberOfComponents="3" format="ascii">
-5.000000000000000e-01 -5.000000000000000e-01 3.000000000000000e+00
-5.000000000000000e-01 -5.000000000000000e-01 2.250000000000000e+00
-5.000000000000000e-01 5.000000000000000e-01 2.250000000000000e+00
-5.000000000000000e-01 5.000000000000000e-01 3.000000000000000e+00
5.000000000000000e-01 -5.000000000000000e-01 3.000000000000000e+00
5.000000000000000e-01 -5.000000000000000e-01 2.250000000000000e+00
5.000000000000000e-01 5.000000000000000e-01 2.250000000000000e+00
5.000000000000000e-01 5.000000000000000e-01 3.000000000000000e+00
-5.000000000000000e-01 -5.000000000000000e-01 2.250000000000000e+00
-5.000000000000000e-01 -5.000000000000000e-01 1.500000000000000e+00
-5.000000000000000e-01 5.000000000000000e-01 1.500000000000000e+00
-5.000000000000000e-01 5.000000000000000e-01 2.250000000000000e+00
5.000000000000000e-01 -5.000000000000000e-01 2.250000000000000e+00
5.000000000000000e-01 -5.000000000000000e-01 1.500000000000000e+00
5.000000000000000e-01 5.000000000000000e-01 1.500000000000000e+00
5.000000000000000e-01 5.000000000000000e-01 2.250000000000000e+00
-5.000000000000000e-01 -5.000000000000000e-01 1.500000000000000e+00
-5.000000000000000e-01 -5.000000000000000e-01 7.500000000000000e-01
-5.000000000000000e-01 5.000000000000000e-01 7.500000000000000e-01
-5.000000000000000e-01 5.000000000000000e-01 1.500000000000000e+00
5.000000000000000e-01 -5.000000000000000e-01 1.500000000000000e+00
5.000000000000000e-01 -5.000000000000000e-01 7.500000000000000e-01
5.000000000000000e-01 5.000000000000000e-01 7.500000000000000e-01
5.000000000000000e-01 5.000000000000000e-01 1.500000000000000e+00
-5.000000000000000e-01 -5.000000000000000e-01 7.500000000000000e-01
-5.000000000000000e-01 -5.000000000000000e-01 0.000000000000000e+00
-5.000000000000000e-01 5.000000000000000e-01 0.000000000000000e+00
-5.000000000000000e-01 5.000000000000000e-01 7.500000000000000e-01
5.000000000000000e-01 -5.000000000000000e-01 7.500000000000000e-01
5.000000000000000e-01 -5.000000000000000e-01 0.000000000000000e+00
5.000000000000000e-01 5.000000000000000e-01 0.000000000000000e+00
5.000000000000000e-01 5.000000000000000e-01 7.500000000000000e-01
-5.000000000000000e-01 -5.000000000000000e-01 0.000000000000000e+00
-5.000000000000000e-01 -5.000000000000000e-01 -7.500000000000000e-01
-5.000000000000000e-01 5.000000000000000e-01 -7.500000000000000e-01
-5.000000000000000e-01 5.000000000000000e-01 0.000000000000000e+00
5.000000000000000e-01 -5.000000000000000e-01 0.000000000000000e+00
5.000000000000000e-01 -5.000000000000000e-01 -7.500000000000000e-01
5.000000000000000e-01 5.000000000000000e-01 -7.500000000000000e-01
5.000000000000000e-01 5.000000000000000e-01 0.000000000000000e+00
-5.000000000000000e-01 -5.000000000000000e-01 -7.500000000000000e-01
-5.000000000000000e-01 -5.000000000000000e-01 -1.500000000000000e+00
-5.000000000000000e-01 5.000000000000000e-01 -1.500000000000000e+00
-5.000000000000000e-01 5.000000000000000e-01 -7.500000000000000e-01
5.000000000000000e-01 -5.000000000000000e-01 -7.500000000000000e-01
5.000000000000000e-01 -5.000000000000000e-01 -1.500000000000000e+00
5.000000000000000e-01 5.000000000000000e-01 -1.500000000000000e+00
5.000000000000000e-01 5.000000000000000e-01 -7.500000000000000e-01
-5.000000000000000e-01 -5.000000000000000e-01 -1.500000000000000e+00
-5.000000000000000e-01 -5.000000000000000e-01 -2.250000000000000e+00
-5.000000000000000e-01 5.000000000000000e-01 -2.250000000000000e+00
-5.000000000000000e-01 5.000000000000000e-01 -1.500000000000000e+00
5.000000000000000e-01 -5.000000000000000e-01 -1.500000000000000e+00
5.000000000000000e-01 -5.000000000000000e-01 -2.250000000000000e+00
5.000000000000000e-01 5.000000000000000e-01 -2.250000000000000e+00
5.000000000000000e-01 5.000000000000000e-01 -1.500000000000000e+00
-5.000000000000000e-01 -5.000000000000000e-01 -2.250000000000000e+00
-5.000000000000000e-01 -5.000000000000000e-01 -3.000000000000000e+00
-5.000000000000000e-01 5.000000000000000e-01 -3.000000000000000e+00
-5.000000000000000e-01 5.000000000000000e-01 -2.250000000000000e+00
5.000000000000000e-01 -5.000000000000000e-01 -2.250000000000000e+00
5.000000000000000e-01 -5.000000000000000e-01 -3.000000000000000e+00
5.000000000000000e-01 5.000000000000000e-01 -3.000000000000000e+00
5.000000000000000e-01 5.000000000000000e-01 -2.250000000000000e+00
5.000000000000000e-01 -3.500000000000000e-01 -3.000000000000000e+00
5.000000000000000e-01 -3.600000000000000e-01 -2.400000000000000e+00
0.000000000000000e+00 -3.600000000000000e-01 -2.400000000000001e+00
0.000000000000000e+00 -3.500000000000000e-01 -3.000000000000000e+00
5.000000000000000e-01 -8.500000000000000e-01 -3.000000000000000e+00
5.000000000000000e-01 -8.500000000000000e-01 -2.400000000000000e+00
6.938893903907228e-18 -8.500000000000000e-01 -2.399999999999999e+00
0.000000000000000e+00 -8.500000000000000e-01 -3.000000000000000e+00
5.000000000000000e-01 -3.600000000000000e-01 -2.400000000000000e+00
5.000000000000000e-01 -3.700000000000000e-01 -1.800000000000000e+00
-1.387778780781446e-17 -3.700000000000001e-01 -1.800000000000000e+00
0.000000000000000e+00 -3.600000000000000e-01 -2.400000000000001e+00
5.000000000000000e-01 -8.500000000000000e-01 -2.400000000000000e+00
5.000000000000000e-01 -8.500000000000000e-01 -1.800000000000000e+00
-1.387778780781446e-17 -8.500000000000000e-01 -1.800000000000000e+00
6.938893903907228e-18 -8.500000000000000e-01 -2.399999999999999e+00
5.000000000000000e-01 -3.700000000000000e-01 -1.800000000000000e+00
5.000000000000000e-01 -3.800000000000000e-01 -1.200000000000000e+00
1.387778780781446e-17 -3.800000000000000e-01 -1.200000000000000e+00
-1.387778780781446e-17 -3.700000000000001e-01 -1.800000000000000e+00
5.000000000000000e-01 -8.500000000000000e-01 -1.800000000000000e+00
5.000000000000000e-01 -8.500000000000000e-01 -1.200000000000001e+00
1.387778780781446e-17 -8.500000000000000e-01 -1.200000000000001e+00
-1.387778780781446e-17 -8.500000000000000e-01 -1.800000000000000e+00
5.000000000000000e-01 -3.800000000000000e-01 -1.200000000000000e+00
5.000000000000000e-01 -3.900000000000000e-01 -5.999999999999996e-01
0.000000000000000e+00 -3.900000000000000e-01 -5.999999999999995e-01
1.387778780781446e-17 -3.800000000000000e-01 -1.200000000000000e+00
5.000000000000000e-01 -8.500000000000000e-01 -1.200000000000001e+00
5.000000000000000e-01 -8.500000000000000e-01 -6.000000000000001e-01
0.000000000000000e+00 -8.500000000000000e-01 -6.000000000000003e-01
1.387778780781446e-17 -8.500000000000000e-01 -1.200000000000001e+00
5.000000000000000e-01 -3.900000000000000e-01 -5.999999999999996e-01
5.000000000000000e-01 -4.000000000000000e-01 4.440892098500626e-16
0.000000000000000e+00 -4.000000000000000e-01 4.919737976851512e-16
0.000000000000000e+00 -3.900000000000000e-01 -5.999999999999995e-01
5.000000000000000e-01 -8.500000000000000e-01 -6.000000000000001e-01
5.000000000000000e-01 -8.500000000000000e-01 -4.440892098500626e-16
0.000000000000000e+00 -8.500000000000000e-01 -4.509379882487243e-16
0.000000000000000e+00 -8.500000000000000e-01 -6.000000000000003e-01
5.000000000000000e-01 -4.000000000000000e-01 4.440892098500626e-16
5.000000000000000e-01 -4.100000000000000e-01 6.000000000000005e-01
0.000000000000000e+00 -4.100000000000000e-01 6.000000000000004e-01
0.000000000000000e+00 -4.000000000000000e-01 4.919737976851512e-16
5.000000000000000e-01 -8.500000000000000e-01 -4.440892098500626e-16
5.000000000000000e-01 -8.500000000000000e-01 5.999999999999996e-01
0.000000000000000e+00 -8.500000000000000e-01 5.999999999999994e-01
0.000000000000000e+00 -8.500000000000000e-01 -4.509379882487243e-16
5.000000000000000e-01 -4.100000000000000e-01 6.000000000000005e-01
5.000000000000000e-01 -4.200000000000000e-01 1.200000000000001e+00
2.775557561562891e-17 -4.200000000000000e-01 1.200000000000001e+00
0.000000000000000e+00 -4.100000000000000e-01 6.000000000000004e-01
5.000000000000000e-01 -8.500000000000000e-01 5.999999999999996e-01
5.000000000000000e-01 -8.500000000000000e-01 1.200000000000000e+00
0.000000000000000e+00 -8.500000000000000e-01 1.200000000000000e+00
0.000000000000000e+00 -8.500000000000000e-01 5.999999999999994e-01
5.000000000000000e-01 -4.200000000000000e-01 1.200000000000001e+00
5.000000000000000e-01 -4.300000000000000e-01 1.800000000000001e+00
0.000000000000000e+00 -4.300000000000000e-01 1.800000000000001e+00
2.775557561562891e-17 -4.200000000000000e-01 1.200000000000001e+00
5.000000000000000e-01 -8.500000000000000e-01 1.200000000000000e+00
5.000000000000000e-01 -8.500000000000000e-01 1.800000000000000e+00
0.000000000000000e+00 -8.500000000000000e-01 1.800000000000000e+00
0.000000000000000e+00 -8.500000000000000e-01 1.200000000000000e+00
5.000000000000000e-01 -4.300000000000000e-01 1.800000000000001e+00
5.000000000000000e-01 -4.400000000000000e-01 2.400000000000001e+00
0.000000000000000e+00 -4.400000000000001e-01 2.400000000000001e+00
0.000000000000000e+00 -4.300000000000000e-01 1.800000000000001e+00
5.000000000000000e-01 -8.500000000000000e-01 1.800000000000000e+00
5.000000000000000e-01 -8.500000000000000e-01 2.399999999999999e+00
0.000000000000000e+00 -8.500000000000000e-01 2.400000000000000e+00
0.000000000000000e+00 -8.500000000000000e-01 1.800000000000000e+00
5.000000000000000e-01 -4.400000000000000e-01 2.400000000000001e+00
5.000000000000000e-01 -4.500000000000000e-01 3.000000000000000e+00
0.000000000000000e+00 -4.500000000000000e-01 3.000000000000000e+00
0.000000000000000e+00 -4.400000000000001e-01 2.400000000000001e+00
5.000000000000000e-01 -8.500000000000000e-01 2.399999999999999e+00
5.000000000000000e-01 -8.500000000000000e-01 3.000000000000000e+00
0.000000000000000e+00 -8.500000000000000e-01 3.000000000000000e+00
0.000000000000000e+00 -8.500000000000000e-01 2.400000000000000e+00
0.000000000000000e+00 -3.500000000000000e-01 -3.000000000000000e+00
0.000000000000000e+00 -3.600000000000000e-01 -2.400000000000001e+00
-5.000000000000000e-01 -3.600000000000000e-01 -2.400000000000000e+00
-5.000000000000000e-01 -3.500000000000000e-01 -3.000000000000000e+00
0.000000000000000e+00 -8.500000000000000e-01 -3.000000000000000e+00
6.938893903907228e-18 -8.500000000000000e-01 -2.399999999999999e+00
-5.000000000000000e-01 -8.500000000000000e-01 -2.400000000000000e+00
-5.000000000000000e-01 -8.500000000000000e-01 -3.000000000000000e+00
0.000000000000000e+00 -3.600000000000000e-01 -2.400000000000001e+00
-1.387778780781446e-17 -3.700000000000001e-01 -1.800000000000000e+00
-5.000000000000000e-01 -3.700000000000000e-01 -1.800000000000000e+00
-5.000000000000000e-01 -3.600000000000000e-01 -2.400000000000000e+00
6.938893903907228e-18 -8.500000000000000e-01 -2.399999999999999e+00
-1.387778780781446e-17 -8.500000000000000e-01 -1.800000000000000e+00
-5.000000000000000e-01 -8.500000000000000e-01 -1.800000000000000e+00
-5.000000000000000e-01 -8.500000000000000e-01 -2.400000000000000e+00
-1.387778780781446e-17 -3.700000000000001e-01 -1.800000000000000e+00
1.387778780781446e-17 -3.800000000000000e-01 -1.200000000000000e+00
-5.000000000000000e-01 -3.800000000000000e-01 -1.200000000000000e+00
-5.000000000000000e-01 -3.700000000000000e-01 -1.800000000000000e+00
-1.387778780781446e-17 -8.500000000000000e-01 -1.800000000000000e+00
1.387778780781446e-17 -8.500000000000000e-01 -1.200000000000001e+00
-5.000000000000000e-01 -8.500000000000000e-01 -1.200000000000001e+00
-5.000000000000000e-01 -8.500000000000000e-01 -1.800000000000000e+00
1.387778780781446e-17 -3.800000000000000e-01 -1.200000000000000e+00
0.000000000000000e+00 -3.900000000000000e-01 -5.999999999999995e-01
-5.000000000000000e-01 -3.900000000000000e-01 -5.999999999999996e-01
-5.000000000000000e-01 -3.800000000000000e-01 -1.200000000000000e+00
1.387778780781446e-17 -8.500000000000000e-01 -1.200000000000001e+00
0.000000000000000e+00 -8.500000000000000e-01 -6.000000000000003e-01
-5.000000000000000e-01 -8.500000000000000e-01 -6.000000000000005e-01
-5.000000000000000e-01 -8.500000000000000e-01 -1.200000000000001e+00
0.000000000000000e+00 -3.900000000000000e-01 -5.999999999999995e-01
0.000000000000000e+00 -4.000000000000000e-01 4.919737976851512e-16
-5.000000000000000e-01 -4.000000000000000e-01 4.440892098500626e-16
-5.000000000000000e-01 -3.900000000000000e-01 -5.999999999999996e-01
0.000000000000000e+00 -8.500000000000000e-01 -6.000000000000003e-01
0.000000000000000e+00 -8.500000000000000e-01 -4.509379882487243e-16
-5.000000000000000e-01 -8.500000000000000e-01 -4.440892098500626e-16
-5.000000000000000e-01 -8.500000000000000e-01 -6.000000000000005e-01
0.000000000000000e+00 -4.000000000000000e-01 4.919737976851512e-16
0.000000000000000e+00 -4.100000000000000e-01 6.000000000000004e-01
-5.000000000000000e-01 -4.100000000000000e-01 6.000000000000005e-01
-5.000000000000000e-01 -4.000000000000000e-01 4.440892098500626e-16
0.000000000000000e+00 -8.500000000000000e-01 -4.509379882487243e-16
0.000000000000000e+00 -8.500000000000000e-01 5.999999999999994e-01
-5.000000000000000e-01 -8.500000000000000e-01 5.999999999999992e-01
-5.000000000000000e-01 -8.500000000000000e-01 -4.440892098500626e-16
0.000000000000000e+00 -4.100000000000000e-01 6.000000000000004e-01
2.775557561562891e-17 -4.200000000000000e-01 1.200000000000001e+00
-5.000000000000000e-01 -4.200000000000000e-01 1.200000000000001e+00
-5.000000000000000e-01 -4.100000000000000e-01 6.000000000000005e-01
0.000000000000000e+00 -8.500000000000000e-01 5.999999999999994e-01
0.000000000000000e+00 -8.500000000000000e-01 1.200000000000000e+00
-5.000000000000000e-01 -8.500000000000000e-01 1.200000000000000e+00
-5.000000000000000e-01 -8.500000000000000e-01 5.999999999999992e-01
2.775557561562891e-17 -4.200000000000000e-01 1.200000000000001e+00
0.000000000000000e+00 -4.300000000000000e-01 1.800000000000001e+00
-5.000000000000000e-01 -4.300000000000000e-01 1.800000000000001e+00
-5.000000000000000e-01 -4.200000000000000e-01 1.200000000000001e+00
0.000000000000000e+00 -8.500000000000000e-01 1.200000000000000e+00
0.000000000000000e+00 -8.500000000000000e-01 1.800000000000000e+00
-5.000000000000000e-01 -8.500000000000000e-01 1.799999999999999e+00
-5.000000000000000e-01 -8.500000000000000e-01 1.200000000000000e+00
0.000000000000000e+00 -4.300000000000000e-01 1.800000000000001e+00
0.000000000000000e+00 -4.400000000000001e-01 2.400000000000001e+00
-5.000000000000000e-01 -4.400000000000000e-01 2.400000000000001e+00
-5.000000000000000e-01 -4.300000000000000e-01 1.800000000000001e+00
0.000000000000000e+00 -8.500000000000000e-01 1.800000000000000e+00
0.000000000000000e+00 -8.500000000000000e-01 2.400000000000000e+00
-5.000000000000000e-01 -8.500000000000000e-01 2.399999999999999e+00
-5.000000000000000e-01 -8.500000000000000e-01 1.799999999999999e+00
0.000000000000000e+00 -4.400000000000001e-01 2.400000000000001e+00
0.000000000000000e+00 -4.500000000000000e-01 3.000000000000000e+00
-5.000000000000000e-01 -4.500000000000000e-01 3.000000000000000e+00
-5.000000000000000e-01 -4.400000000000000e-01 2.400000000000001e+00
0.000000000000000e+00 -8.500000000000000e-01 2.400000000000000e+00
0.000000000000000e+00 -8.500000000000000e-01 3.000000000000000e+00
-5.000000000000000e-01 -8.500000000000000e-01 3.000000000000000e+00
-5.000000000000000e-01 -8.500000000000000e-01 2.399999999999999e+00
        </DataArray>
      </Points>

      <Cells>
        <DataArray type="Int32" Name="connectivity" format="ascii">
0 1 2 3 4 5 6 7 8 9 10 11 12 13 14 15 16 17 18 19 20 21 22 23 24 25 26 27 28 29 30 31 32 33 34 35 36 37 38 39 40 41 42 43 44 45 46 47 48 49 50 51 52 53 54 55 56 57 58 59 60 61 62 63 64 65 66 67 68 69 70 71 72 73 74 75 76 77 78 79 80 81 82 83 84 85 86 87 88 89 90 91 92 93 94 95 96 97 98 99 100 101 102 103 104 105 106 107 108 109 110 111 112 113 114 115 116 117 118 119 120 121 122 123 124 125 126 127 128 129 130 131 132 133 134 135 136 137 138 139 140 141 142 143 144 145 146 147 148 149 150 151 152 153 154 155 156 157 158 159 160 161 162 163 164 165 166 167 168 169 170 171 172 173 174 175 176 177 178 179 180 181 182 183 184 185 186 187 188 189 190 191 192 193 194 195 196 197 198 199 200 201 202 203 204 205 206 207 208 209 210 211 212 213 214 215 216 217 218 219 220 221 222 223 
        </DataArray>
        <DataArray type="Int32" Name="offsets" format="ascii">
8 16 24 32 40 48 56 64 72 80 88 96 104 112 120 128 136 144 152 160 168 176 184 192 200 208 216 224 
        </DataArray>
        <DataArray type="UInt8" Name="types" format="ascii">
12 12 12 12 12 12 12 12 12 12 12 12 12 12 12 12 12 12 12 12 12 12 12 12 12 12 12 12 
        </DataArray>
      </Cells>

  <PointData>
        <DataArray type="Float64" Name="displacement" NumberOfComponents="3" format="ascii">
-1.786521164442635e+00 -2.139787060655763e+00 -1.239595823532495e+00
-1.477540962033092e+00 -1.788291812360219e+00 -1.073812091835118e+00
-1.774679743600887e+00 -1.908185806188809e+00 -7.079829868040959e-01
-2.087498057010577e+00 -2.261758787769186e+00 -8.727271852777362e-01
-1.926774078291839e+00 -2.058253195187474e+00 -7.354273541361327e-01
-1.616259339763298e+00 -1.708025079291022e+00 -5.720699307856841e-01
-1.914790463597990e+00 -1.828474123536604e+00 -2.037616115591094e-01
-2.228672715188467e+00 -2.180304682226808e+00 -3.669759139448153e-01
-1.477540962033092e+00 -1.788291812360219e+00 -1.073812091835118e+00
-1.173056190983379e+00 -1.439239899984536e+00 -9.059921248189717e-01
-1.459077830695869e+00 -1.553461517831829e+00 -5.452114430818018e-01
-1.774679743600887e+00 -1.908185806188809e+00 -7.079829868040959e-01
-1.616259339763298e+00 -1.708025079291022e+00 -5.720699307856841e-01
-1.306228871472999e+00 -1.362074910662530e+00 -4.134381480462340e-01
-1.594444282743774e+00 -1.477751539691649e+00 -4.854284322197815e-02
-1.914790463597990e+00 -1.828474123536604e+00 -2.037616115591094e-01
-1.173056190983379e+00 -1.439239899984536e+00 -9.059921248189717e-01
-8.783486067069255e-01 -1.100824939700248e+00 -7.384647032835862e-01
-1.144559861972455e+00 -1.204610828409321e+00 -3.895111826984821e-01
-1.459077830695869e+00 -1.553461517831829e+00 -5.452114430818018e-01
-1.306228871472999e+00 -1.362074910662530e+00 -4.134381480462340e-01
-1.000068918806304e+00 -1.026293115001110e+00 -2.663301087030767e-01
-1.269247395147897e+00 -1.132183757345259e+00 8.849222599360443e-02
-1.594444282743774e+00 -1.477751539691649e+00 -4.854284322197815e-02
-8.783486067069255e-01 -1.100824939700248e+00 -7.384647032835862e-01
-6.024226280764150e-01 -7.838699918651699e-01 -5.754385482098846e-01
-8.383395329359546e-01 -8.709575356084053e-01 -2.489408044419288e-01
-1.144559861972455e+00 -1.204610828409321e+00 -3.895111826984821e-01
-1.000068918806304e+00 -1.026293115001110e+00 -2.663301087030767e-01
-7.052502108499767e-01 -7.103801386105584e-01 -1.404366032251910e-01
-9.447784653206417e-01 -8.004093619328637e-01 1.939640499657670e-01
-1.269247395147897e+00 -1.132183757345259e+00 8.849222599360443e-02
-6.024226280764150e-01 -7.838699918651699e-01 -5.754385482098846e-01
-3.582868974376303e-01 -5.008097858137859e-01 -4.214576480620809e-01
-5.511266272466339e-01 -5.655327878721772e-01 -1.328245473701747e-01
-8.383395329359546e-01 -8.709575356084053e-01 -2.489408044419288e-01
-7.052502108499767e-01 -7.103801386105584e-01 -1.404366032251910e-01
-4.351862658314915e-01 -4.286317907693374e-01 -4.498429064391028e-02
-6.310536482142930e-01 -4.953397394910773e-01 2.511524307329125e-01
-9.447784653206417e-01 -8.004093619328637e-01 1.939640499657670e-01
-3.582868974376303e-01 -5.008097858137859e-01 -4.214576480620809e-01
-1.551639761311763e-01 -2.601760642800365e-01 -2.729094522889863e-01
-3.029640987610110e-01 -3.070678872395862e-01 -5.284173223969724e-02
-5.511266272466339e-01 -5.655327878721772e-01 -1.328245473701747e-01
-4.351862658314915e-01 -4.286317907693374e-01 -4.498429064391028e-02
-1.991354657405224e-01 -1.926106393568405e-01 6.975521658206499e-03
-3.518220272175130e-01 -2.393061727497497e-01 2.427242302734505e-01
-6.310536482142930e-01 -4.953397394910773e-01 2.511524307329125e-01
-1.551639761311763e-01 -2.601760642800365e-01 -2.729094522889863e-01
-4.678722909722426e-02 -1.014171250364193e-01 -1.387522257321184e-01
-1.061044449815864e-01 -1.070890052421434e-01 -1.232745276891251e-02
-3.029640987610110e-01 -3.070678872395862e-01 -5.284173223969724e-02
-1.991354657405224e-01 -1.926106393568405e-01 6.975521658206499e-03
-6.120753210906983e-02 -5.362720145020910e-02 1.357542630783679e-02
-1.243916476185151e-01 -7.000103394342064e-02 1.603525072966905e-01
-3.518220272175130e-01 -2.393061727497497e-01 2.427242302734505e-01
-4.678722909722426e-02 -1.014171250364193e-01 -1.387522257321184e-01
0.000000000000000e+00 0.000000000000000e+00 0.000000000000000e+00
0.000000000000000e+00 0.000000000000000e+00 0.000000000000000e+00
-1.061044449815864e-01 -1.070890052421434e-01 -1.232745276891251e-02
-6.120753210906983e-02 -5.362720145020910e-02 1.357542630783679e-02
0.000000000000000e+00 0.000000000000000e+00 0.000000000000000e+00
0.000000000000000e+00 0.000000000000000e+00 0.000000000000000e+00
-1.243916476185151e-01 -7.000103394342064e-02 1.603525072966905e-01
0.000000000000000e+00 0.000000000000000e+00 0.000000000000000e+00
-5.338847303647060e-02 -4.161783900973252e-02 2.835969082173326e-02
-4.774093577567182e-02 -6.067650921651026e-02 -3.418749747658078e-02
0.000000000000000e+00 0.000000000000000e+00 0.000000000000000e+00
0.000000000000000e+00 0.000000000000000e+00 0.000000000000000e+00
-1.727021729008357e-02 -2.787058754869758e-02 -3.018403283762107e-02
-1.202519513071314e-02 -5.064245283105717e-02 -9.379059472661518e-02
0.000000000000000e+00 0.000000000000000e+00 0.000000000000000e+00
-5.338847303647060e-02 -4.161783900973252e-02 2.835969082173326e-02
-1.506948875961137e-01 -1.326261110024874e-01 3.936782255701822e-02
-1.347532716386455e-01 -1.631854651018251e-01 -7.748732514807535e-02
-4.774093577567182e-02 -6.067650921651026e-02 -3.418749747658078e-02
-1.727021729008357e-02 -2.787058754869758e-02 -3.018403283762107e-02
-9.798322617573972e-02 -1.207202876478874e-01 -5.948922348849139e-02
-8.304159511251127e-02 -1.510505088503301e-01 -1.733182887555842e-01
-1.202519513071314e-02 -5.064245283105717e-02 -9.379059472661518e-02
-1.506948875961137e-01 -1.326261110024874e-01 3.936782255701822e-02
-3.078631169684360e-01 -2.869306291319578e-01 2.182360263207025e-02
-2.789620404558592e-01 -3.220360122000974e-01 -1.396132350419109e-01
-1.347532716386455e-01 -1.631854651018251e-01 -7.748732514807535e-02
-9.798322617573972e-02 -1.207202876478874e-01 -5.948922348849139e-02
-2.337753688432118e-01 -2.655366320862537e-01 -1.027141397445497e-01
-2.053764642604983e-01 -2.990713515616774e-01 -2.631070804363274e-01
-8.304159511251127e-02 -1.510505088503301e-01 -1.733182887555842e-01
-3.078631169684360e-01 -2.869306291319578e-01 2.182360263207025e-02
-5.109494191408849e-01 -4.913044198300126e-01 -2.846994257644406e-02
-4.695233671337913e-01 -5.274154773724545e-01 -2.238854266963387e-01
-2.789620404558592e-01 -3.220360122000974e-01 -1.396132350419109e-01
-2.337753688432118e-01 -2.655366320862537e-01 -1.027141397445497e-01
-4.148968121607614e-01 -4.566662518275474e-01 -1.699977862321483e-01
-3.736618699296688e-01 -4.932444212584807e-01 -3.649728331866915e-01
-2.053764642604983e-01 -2.990713515616774e-01 -2.631070804363274e-01
-5.109494191408849e-01 -4.913044198300126e-01 -2.846994257644406e-02
-7.296153334730263e-01 -7.200884096154700e-01 -1.078330672645044e-01
-6.781332739878723e-01 -7.566979861701636e-01 -3.253561646079401e-01
-4.695233671337913e-01 -5.274154773724545e-01 -2.238854266963387e-01
-4.148968121607614e-01 -4.566662518275474e-01 -1.699977862321483e-01
-6.236914800301914e-01 -6.813581172883211e-01 -2.583800332668243e-01
-5.724304432418791e-01 -7.176383360145803e-01 -4.756328760435479e-01
-3.736618699296688e-01 -4.932444212584807e-01 -3.649728331866915e-01
-7.296153334730263e-01 -7.200884096154700e-01 -1.078330672645044e-01
-9.641833946368230e-01 -9.712291553637323e-01 -2.082626036721450e-01
-9.048835882857432e-01 -1.008254197450995e+00 -4.413718132352140e-01
-6.781332739878723e-01 -7.566979861701636e-01 -3.253561646079401e-01
-6.236914800301914e-01 -6.813581172883211e-01 -2.583800332668243e-01
-8.491448919574945e-01 -9.267346722586566e-01 -3.629514359596956e-01
-7.900150998998173e-01 -9.635983919367578e-01 -5.957823773773255e-01
-5.724304432418791e-01 -7.176383360145803e-01 -4.756328760435479e-01
-9.641833946368230e-01 -9.712291553637323e-01 -2.082626036721450e-01
-1.205693842562561e+00 -1.235505386319589e+00 -3.242929980240353e-01
-1.141011629616634e+00 -1.273445296878330e+00 -5.672591918789414e-01
-9.048835882857432e-01 -1.008254197450995e+00 -4.413718132352140e-01
-8.491448919574945e-01 -9.267346722586566e-01 -3.629514359596956e-01
-1.085735285180788e+00 -1.188181187674158e+00 -4.798185821620521e-01
-1.021174114034045e+00 -1.225943921699927e+00 -7.226137443276047e-01
-7.900150998998173e-01 -9.635983919367578e-01 -5.957823773773255e-01
-1.205693842562561e+00 -1.235505386319589e+00 -3.242929980240353e-01
-1.450602266263225e+00 -1.508102750575337e+00 -4.505143948222076e-01
-1.382624942395554e+00 -1.547291847791123e+00 -6.991382270082266e-01
-1.141011629616634e+00 -1.273445296878330e+00 -5.672591918789414e-01
-1.085735285180788e+00 -1.188181187674158e+00 -4.798185821620521e-01
-1.328505433963462e+00 -1.459436014617020e+00 -6.044898271378514e-01
-1.260617764740335e+00 -1.498432791897572e+00 -8.529918965141259e-01
-1.021174114034045e+00 -1.225943921699927e+00 -7.226137443276047e-01
-1.450602266263225e+00 -1.508102750575337e+00 -4.505143948222076e-01
-1.696350682334133e+00 -1.785184202398727e+00 -5.824827436492713e-01
-1.626714793426078e+00 -1.825494105806981e+00 -8.338001346299857e-01
-1.382624942395554e+00 -1.547291847791123e+00 -6.991382270082266e-01
-1.328505433963462e+00 -1.459436014617020e+00 -6.044898271378514e-01
-1.574548644918826e+00 -1.736548714103570e+00 -7.335420020721192e-01
-1.505011495283137e+00 -1.776685340296650e+00 -9.847201538892972e-01
-1.260617764740335e+00 -1.498432791897572e+00 -8.529918965141259e-01
-1.696350682334133e+00 -1.785184202398727e+00 -5.824827436492713e-01
-1.941857025323692e+00 -2.064425249141295e+00 -7.170843336259713e-01
-1.871751752399272e+00 -2.105157653129806e+00 -9.691373680110031e-01
-1.626714793426078e+00 -1.825494105806981e+00 -8.338001346299857e-01
-1.574548644918826e+00 -1.736548714103570e+00 -7.335420020721192e-01
-1.822183728899615e+00 -2.016445214421458e+00 -8.644438005660139e-01
-1.752187903629757e+00 -2.057050796120197e+00 -1.116332597651819e+00
-1.505011495283137e+00 -1.776685340296650e+00 -9.847201538892972e-01
0.000000000000000e+00 0.000000000000000e+00 0.000000000000000e+00
-4.774093577567182e-02 -6.067650921651026e-02 -3.418749747658078e-02
-4.209637760569786e-02 -7.973874474402169e-02 -9.675710624140862e-02
0.000000000000000e+00 0.000000000000000e+00 0.000000000000000e+00
0.000000000000000e+00 0.000000000000000e+00 0.000000000000000e+00
-1.202519513071314e-02 -5.064245283105717e-02 -9.379059472661518e-02
-6.794842105918788e-03 -7.324941973679810e-02 -1.591372518173587e-01
0.000000000000000e+00 0.000000000000000e+00 0.000000000000000e+00
-4.774093577567182e-02 -6.067650921651026e-02 -3.418749747658078e-02
-1.347532716386455e-01 -1.631854651018251e-01 -7.748732514807535e-02
-1.188055737819487e-01 -1.937412442161467e-01 -1.943817785152821e-01
-4.209637760569786e-02 -7.973874474402169e-02 -9.675710624140862e-02
-1.202519513071314e-02 -5.064245283105717e-02 -9.379059472661518e-02
-8.304159511251127e-02 -1.510505088503301e-01 -1.733182887555842e-01
-6.805200325310919e-02 -1.811029299870129e-01 -2.878714153529929e-01
-6.794842105918788e-03 -7.324941973679810e-02 -1.591372518173587e-01
-1.347532716386455e-01 -1.631854651018251e-01 -7.748732514807535e-02
-2.789620404558592e-01 -3.220360122000974e-01 -1.396132350419109e-01
-2.500558400895098e-01 -3.571419836648253e-01 -3.010654959850060e-01
-1.188055737819487e-01 -1.937412442161467e-01 -1.943817785152821e-01
-8.304159511251127e-02 -1.510505088503301e-01 -1.733182887555842e-01
-2.053764642604983e-01 -2.990713515616774e-01 -2.631070804363274e-01
-1.766012819440763e-01 -3.323631529077729e-01 -4.249174705232582e-01
-6.805200325310919e-02 -1.811029299870129e-01 -2.878714153529929e-01
-2.789620404558592e-01 -3.220360122000974e-01 -1.396132350419109e-01
-4.695233671337913e-01 -5.274154773724545e-01 -2.238854266963387e-01
-4.280910892620188e-01 -5.635238335769392e-01 -4.193174166045549e-01
-2.500558400895098e-01 -3.571419836648253e-01 -3.010654959850060e-01
-2.053764642604983e-01 -2.990713515616774e-01 -2.631070804363274e-01
-3.736618699296688e-01 -4.932444212584807e-01 -3.649728331866915e-01
-3.321281384891167e-01 -5.296349967861437e-01 -5.607364184703759e-01
-1.766012819440763e-01 -3.323631529077729e-01 -4.249174705232582e-01
-4.695233671337913e-01 -5.274154773724545e-01 -2.238854266963387e-01
-6.781332739878723e-01 -7.566979861701636e-01 -3.253561646079401e-01
-6.266505968342877e-01 -7.933068220555306e-01 -5.428799617144506e-01
-4.280910892620188e-01 -5.635238335769392e-01 -4.193174166045549e-01
-3.736618699296688e-01 -4.932444212584807e-01 -3.649728331866915e-01
-5.724304432418791e-01 -7.176383360145803e-01 -4.756328760435479e-01
-5.210824495552463e-01 -7.538095689193353e-01 -6.930910811783800e-01
-3.321281384891167e-01 -5.296349967861437e-01 -5.607364184703759e-01
-6.781332739878723e-01 -7.566979861701636e-01 -3.253561646079401e-01
-9.048835882857432e-01 -1.008254197450995e+00 -4.413718132352140e-01
-8.455817252772048e-01 -1.045278277994623e+00 -6.744855140610102e-01
-6.266505968342877e-01 -7.933068220555306e-01 -5.428799617144506e-01