<?xml version="1.0" ?> 
<!-- 
# vtk DataFile Version 3.0
-->
<VTKFile type="UnstructuredGrid" version="0.1" compressor="vtkZLibDataCompressor" byte_order="LittleEndian">
  <UnstructuredGrid>
    <FieldData>
      <DataArray type="Float64" Name="TIME" NumberOfTuples="1" format="ascii">
0.000000000000000e+00 
      </DataArray>
    </FieldData>

    <Piece NumberOfPoints="224" NumberOfCells="28" >
      <Points>
        <DataArray type="Float64" NumberOfComponents="3" format="ascii">
-5.000000000000000e-01 -5.000000000000000e-01 3.000000000000000e+00
-5.000000000000000e-01 -5.000000000000000e-01 2.250000000000000e+00
-5.000000000000000e-01 5.000000000000000e-01 2.250000000000000e+00
-5.000000000000000e-01 5.000000000000000e-01 3.000000000000000e+00
5.000000000000000e-01 -5.000000000000000e-01 3.000000000000000e+00
5.000000000000000e-01 -5.000000000000000e-01 2.250000000000000e+00
5.000000000000000e-01 5.000000000000000e-01 2.250000000000000e+00
5.000000000000000e-01 5.000000000000000e-01 3.000000000000000e+00
-5.000000000000000e-01 -5.000000000000000e-01 2.250000000000000e+00
-5.000000000000000e-01 -5.000000000000000e-01 1.500000000000000e+00
-5.000000000000000e-01 5.000000000000000e-01 1.500000000000000e+00
-5.000000000000000e-01 5.000000000000000e-01 2.250000000000000e+00
5.000000000000000e-01 -5.000000000000000e-01 2.250000000000000e+00
5.000000000000000e-01 -5.000000000000000e-01 1.500000000000000e+00
5.000000000000000e-01 5.000000000000000e-01 1.500000000000000e+00
5.000000000000000e-01 5.000000000000000e-01 2.250000000000000e+00
-5.000000000000000e-01 -5.000000000000000e-01 1.500000000000000e+00
-5.000000000000000e-01 -5.000000000000000e-01 7.500000000000000e-01
-5.000000000000000e-01 5.000000000000000e-01 7.500000000000000e-01
-5.000000000000000e-01 5.000000000000000e-01 1.500000000000000e+00
5.000000000000000e-01 -5.000000000000000e-01 1.500000000000000e+00
5.000000000000000e-01 -5.000000000000000e-01 7.500000000000000e-01
5.000000000000000e-01 5.000000000000000e-01 7.500000000000000e-01
5.000000000000000e-01 5.000000000000000e-01 1.500000000000000e+00
-5.000000000000000e-01 -5.000000000000000e-01 7.500000000000000e-01
-5.000000000000000e-01 -5.000000000000000e-01 0.000000000000000e+00
-5.000000000000000e-01 5.000000000000000e-01 0.000000000000000e+00
-5.000000000000000e-01 5.000000000000000e-01 7.500000000000000e-01
5.000000000000000e-01 -5.000000000000000e-01 7.500000000000000e-01
5.000000000000000e-01 -5.000000000000000e-01 0.000000000000000e+00
5.000000000000000e-01 5.000000000000000e-01 0.000000000000000e+00
5.000000000000000e-01 5.000000000000000e-01 7.500000000000000e-01
-5.000000000000000e-01 -5.000000000000000e-01 0.000000000000000e+00
-5.000000000000000e-01 -5.000000000000000e-01 -7.500000000000000e-01
-5.000000000000000e-01 5.000000000000000e-01 -7.500000000000000e-01
-5.000000000000000e-01 5.000000000000000e-01 0.000000000000000e+00
5.000000000000000e-01 -5.000000000000000e-01 0.000000000000000e+00
5.000000000000000e-01 -5.000000000000000e-01 -7.500000000000000e-01
5.000000000000000e-01 5.000000000000000e-01 -7.500000000000000e-01
5.000000000000000e-01 5.000000000000000e-01 0.000000000000000e+00
-5.000000000000000e-01 -5.000000000000000e-01 -7.500000000000000e-01
-5.000000000000000e-01 -5.000000000000000e-01 -1.500000000000000e+00
-5.000000000000000e-01 5.000000000000000e-01 -1.500000000000000e+00
-5.000000000000000e-01 5.000000000000000e-01 -7.500000000000000e-01
5.000000000000000e-01 -5.000000000000000e-01 -7.500000000000000e-01
5.000000000000000e-01 -5.000000000000000e-01 -1.500000000000000e+00
5.000000000000000e-01 5.000000000000000e-01 -1.500000000000000e+00
5.000000000000000e-01 5.000000000000000e-01 -7.500000000000000e-01
-5.000000000000000e-01 -5.000000000000000e-01 -1.500000000000000e+00
-5.000000000000000e-01 -5.000000000000000e-01 -2.250000000000000e+00
-5.000000000000000e-01 5.000000000000000e-01 -2.250000000000000e+00
-5.000000000000000e-01 5.000000000000000e-01 -1.500000000000000e+00
5.000000000000000e-01 -5.000000000000000e-01 -1.500000000000000e+00
5.000000000000000e-01 -5.000000000000000e-01 -2.250000000000000e+00
5.000000000000000e-01 5.000000000000000e-01 -2.250000000000000e+00
5.000000000000000e-01 5.000000000000000e-01 -1.500000000000000e+00
-5.000000000000000e-01 -5.000000000000000e-01 -2.250000000000000e+00
-5.000000000000000e-01 -5.000000000000000e-01 -3.000000000000000e+00
-5.000000000000000e-01 5.000000000000000e-01 -3.000000000000000e+00
-5.000000000000000e-01 5.000000000000000e-01 -2.250000000000000e+00
5.000000000000000e-01 -5.000000000000000e-01 -2.250000000000000e+00
5.000000000000000e-01 -5.000000000000000e-01 -3.000000000000000e+00
5.000000000000000e-01 5.000000000000000e-01 -3.000000000000000e+00
5.000000000000000e-01 5.000000000000000e-01 -2.250000000000000e+00
5.000000000000000e-01 -3.500000000000000e-01 -3.000000000000000e+00
5.000000000000000e-01 -3.600000000000000e-01 -2.400000000000000e+00
0.000000000000000e+00 -3.600000000000000e-01 -2.400000000000001e+00
0.000000000000000e+00 -3.500000000000000e-01 -3.000000000000000e+00
5.000000000000000e-01 -8.500000000000000e-01 -3.000000000000000e+00
5.000000000000000e-01 -8.500000000000000e-01 -2.400000000000000e+00
6.938893903907228e-18 -8.500000000000000e-01 -2.399999999999999e+00
0.000000000000000e+00 -8.500000000000000e-01 -3.000000000000000e+00
5.000000000000000e-01 -3.600000000000000e-01 -2.400000000000000e+00
5.000000000000000e-01 -3.700000000000000e-01 -1.800000000000000e+00
-1.387778780781446e-17 -3.700000000000001e-01 -1.800000000000000e+00
0.000000000000000e+00 -3.600000000000000e-01 -2.400000000000001e+00
5.000000000000000e-01 -8.500000000000000e-01 -2.400000000000000e+00
5.000000000000000e-01 -8.500000000000000e-01 -1.800000000000000e+00
-1.387778780781446e-17 -8.500000000000000e-01 -1.800000000000000e+00
6.938893903907228e-18 -8.500000000000000e-01 -2.399999999999999e+00
5.000000000000000e-01 -3.700000000000000e-01 -1.800000000000000e+00
5.000000000000000e-01 -3.800000000000000e-01 -1.200000000000000e+00
1.387778780781446e-17 -3.800000000000000e-01 -1.200000000000000e+00
-1.387778780781446e-17 -3.700000000000001e-01 -1.800000000000000e+00
5.000000000000000e-01 -8.500000000000000e-01 -1.800000000000000e+00
5.000000000000000e-01 -8.500000000000000e-01 -1.200000000000001e+00
1.387778780781446e-17 -8.500000000000000e-01 -1.200000000000001e+00
-1.387778780781446e-17 -8.500000000000000e-01 -1.800000000000000e+00
5.000000000000000e-01 -3.800000000000000e-01 -1.200000000000000e+00
5.000000000000000e-01 -3.900000000000000e-01 -5.999999999999996e-01
0.000000000000000e+00 -3.900000000000000e-01 -5.999999999999995e-01
1.387778780781446e-17 -3.800000000000000e-01 -1.200000000000000e+00
5.000000000000000e-01 -8.500000000000000e-01 -1.200000000000001e+00
5.000000000000000e-01 -8.500000000000000e-01 -6.000000000000001e-01
0.000000000000000e+00 -8.500000000000000e-01 -6.000000000000003e-01
1.387778780781446e-17 -8.500000000000000e-01 -1.200000000000001e+00
5.000000000000000e-01 -3.900000000000000e-01 -5.999999999999996e-01
5.000000000000000e-01 -4.000000000000000e-01 4.440892098500626e-16
0.000000000000000e+00 -4.000000000000000e-01 4.919737976851512e-16
0.000000000000000e+00 -3.900000000000000e-01 -5.999999999999995e-01
5.000000000000000e-01 -8.500000000000000e-01 -6.000000000000001e-01
5.000000000000000e-01 -8.500000000000000e-01 -4.440892098500626e-16
0.000000000000000e+00 -8.500000000000000e-01 -4.509379882487243e-16
0.000000000000000e+00 -8.500000000000000e-01 -6.000000000000003e-01
5.000000000000000e-01 -4.000000000000000e-01 4.440892098500626e-16
5.000000000000000e-01 -4.100000000000000e-01 6.000000000000005e-01
0.000000000000000e+00 -4.100000000000000e-01 6.000000000000004e-01
0.000000000000000e+00 -4.000000000000000e-01 4.919737976851512e-16
5.000000000000000e-01 -8.500000000000000e-01 -4.440892098500626e-16
5.000000000000000e-01 -8.500000000000000e-01 5.999999999999996e-01
0.000000000000000e+00 -8.500000000000000e-01 5.999999999999994e-01
0.000000000000000e+00 -8.500000000000000e-01 -4.509379882487243e-16
5.000000000000000e-01 -4.100000000000000e-01 6.000000000000005e-01
5.000000000000000e-01 -4.200000000000000e-01 1.200000000000001e+00
2.775557561562891e-17 -4.200000000000000e-01 1.200000000000001e+00
0.000000000000000e+00 -4.100000000000000e-01 6.000000000000004e-01
5.000000000000000e-01 -8.500000000000000e-01 5.999999999999996e-01
5.000000000000000e-01 -8.500000000000000e-01 1.200000000000000e+00
0.000000000000000e+00 -8.500000000000000e-01 1.200000000000000e+00
0.000000000000000e+00 -8.500000000000000e-01 5.999999999999994e-01
5.000000000000000e-01 -4.200000000000000e-01 1.200000000000001e+00
5.000000000000000e-01 -4.300000000000000e-01 1.800000000000001e+00
0.000000000000000e+00 -4.300000000000000e-01 1.800000000000001e+00
2.775557561562891e-17 -4.200000000000000e-01 1.200000000000001e+00
5.000000000000000e-01 -8.500000000000000e-01 1.200000000000000e+00
5.000000000000000e-01 -8.500000000000000e-01 1.800000000000000e+00
0.000000000000000e+00 -8.500000000000000e-01 1.800000000000000e+00
0.000000000000000e+00 -8.500000000000000e-01 1.200000000000000e+00
5.000000000000000e-01 -4.300000000000000e-01 1.800000000000001e+00
5.000000000000000e-01 -4.400000000000000e-01 2.400000000000001e+00
0.000000000000000e+00 -4.400000000000001e-01 2.400000000000001e+00
0.000000000000000e+00 -4.300000000000000e-01 1.800000000000001e+00
5.000000000000000e-01 -8.500000000000000e-01 1.800000000000000e+00
5.000000000000000e-01 -8.500000000000000e-01 2.399999999999999e+00
0.000000000000000e+00 -8.500000000000000e-01 2.400000000000000e+00
0.000000000000000e+00 -8.500000000000000e-01 1.800000000000000e+00
5.000000000000000e-01 -4.400000000000000e-01 2.400000000000001e+00
5.000000000000000e-01 -4.500000000000000e-01 3.000000000000000e+00
0.000000000000000e+00 -4.500000000000000e-01 3.000000000000000e+00
0.000000000000000e+00 -4.400000000000001e-01 2.400000000000001e+00
5.000000000000000e-01 -8.500000000000000e-01 2.399999999999999e+00
5.000000000000000e-01 -8.500000000000000e-01 3.000000000000000e+00
0.000000000000000e+00 -8.500000000000000e-01 3.000000000000000e+00
0.000000000000000e+00 -8.500000000000000e-01 2.400000000000000e+00
0.000000000000000e+00 -3.500000000000000e-01 -3.000000000000000e+00
0.000000000000000e+00 -3.600000000000000e-01 -2.400000000000001e+00
-5.000000000000000e-01 -3.600000000000000e-01 -2.400000000000000e+00
-5.000000000000000e-01 -3.500000000000000e-01 -3.000000000000000e+00
0.000000000000000e+00 -8.500000000000000e-01 -3.000000000000000e+00
6.938893903907228e-18 -8.500000000000000e-01 -2.399999999999999e+00
-5.000000000000000e-01 -8.500000000000000e-01 -2.400000000000000e+00
-5.000000000000000e-01 -8.500000000000000e-01 -3.000000000000000e+00
0.000000000000000e+00 -3.600000000000000e-01 -2.400000000000001e+00
-1.387778780781446e-17 -3.700000000000001e-01 -1.800000000000000e+00
-5.000000000000000e-01 -3.700000000000000e-01 -1.800000000000000e+00
-5.000000000000000e-01 -3.600000000000000e-01 -2.400000000000000e+00
6.938893903907228e-18 -8.500000000000000e-01 -2.399999999999999e+00
-1.387778780781446e-17 -8.500000000000000e-01 -1.800000000000000e+00
-5.000000000000000e-01 -8.500000000000000e-01 -1.800000000000000e+00
-5.000000000000000e-01 -8.500000000000000e-01 -2.400000000000000e+00
-1.387778780781446e-17 -3.700000000000001e-01 -1.800000000000000e+00
1.387778780781446e-17 -3.800000000000000e-01 -1.200000000000000e+00
-5.000000000000000e-01 -3.800000000000000e-01 -1.200000000000000e+00
-5.000000000000000e-01 -3.700000000000000e-01 -1.800000000000000e+00
-1.387778780781446e-17 -8.500000000000000e-01 -1.800000000000000e+00
1.387778780781446e-17 -8.500000000000000e-01 -1.200000000000001e+00
-5.000000000000000e-01 -8.500000000000000e-01 -1.200000000000001e+00
-5.000000000000000e-01 -8.500000000000000e-01 -1.800000000000000e+00
1.387778780781446e-17 -3.800000000000000e-01 -1.200000000000000e+00
0.000000000000000e+00 -3.900000000000000e-01 -5.999999999999995e-01
-5.000000000000000e-01 -3.900000000000000e-01 -5.999999999999996e-01
-5.000000000000000e-01 -3.800000000000000e-01 -1.200000000000000e+00
1.387778780781446e-17 -8.500000000000000e-01 -1.200000000000001e+00
0.000000000000000e+00 -8.500000000000000e-01 -6.000000000000003e-01
-5.000000000000000e-01 -8.500000000000000e-01 -6.000000000000005e-01
-5.000000000000000e-01 -8.500000000000000e-01 -1.200000000000001e+00
0.000000000000000e+00 -3.900000000000000e-01 -5.999999999999995e-01
0.000000000000000e+00 -4.000000000000000e-01 4.919737976851512e-16
-5.000000000000000e-01 -4.000000000000000e-01 4.440892098500626e-16
-5.000000000000000e-01 -3.900000000000000e-01 -5.999999999999996e-01
0.000000000000000e+00 -8.500000000000000e-01 -6.000000000000003e-01
0.000000000000000e+00 -8.500000000000000e-01 -4.509379882487243e-16
-5.000000000000000e-01 -8.500000000000000e-01 -4.440892098500626e-16
-5.000000000000000e-01 -8.500000000000000e-01 -6.000000000000005e-01
0.000000000000000e+00 -4.000000000000000e-01 4.919737976851512e-16
0.000000000000000e+00 -4.100000000000000e-01 6.000000000000004e-01
-5.000000000000000e-01 -4.100000000000000e-01 6.000000000000005e-01
-5.000000000000000e-01 -4.000000000000000e-01 4.440892098500626e-16
0.000000000000000e+00 -8.500000000000000e-01 -4.509379882487243e-16
0.000000000000000e+00 -8.500000000000000e-01 5.999999999999994e-01
-5.000000000000000e-01 -8.500000000000000e-01 5.999999999999992e-01
-5.000000000000000e-01 -8.500000000000000e-01 -4.440892098500626e-16
0.000000000000000e+00 -4.100000000000000e-01 6.000000000000004e-01
2.775557561562891e-17 -4.200000000000000e-01 1.200000000000001e+00
-5.000000000000000e-01 -4.200000000000000e-01 1.200000000000001e+00
-5.000000000000000e-01 -4.100000000000000e-01 6.000000000000005e-01
0.000000000000000e+00 -8.500000000000000e-01 5.999999999999994e-01
0.000000000000000e+00 -8.500000000000000e-01 1.200000000000000e+00
-5.000000000000000e-01 -8.500000000000000e-01 1.200000000000000e+00
-5.000000000000000e-01 -8.500000000000000e-01 5.999999999999992e-01
2.775557561562891e-17 -4.200000000000000e-01 1.200000000000001e+00
0.000000000000000e+00 -4.300000000000000e-01 1.800000000000001e+00
-5.000000000000000e-01 -4.300000000000000e-01 1.800000000000001e+00
-5.000000000000000e-01 -4.200000000000000e-01 1.200000000000001e+00
0.000000000000000e+00 -8.500000000000000e-01 1.200000000000000e+00
0.000000000000000e+00 -8.500000000000000e-01 1.800000000000000e+00
-5.000000000000000e-01 -8.500000000000000e-01 1.799999999999999e+00
-5.000000000000000e-01 -8.500000000000000e-01 1.200000000000000e+00
0.000000000000000e+00 -4.300000000000000e-01 1.800000000000001e+00
0.000000000000000e+00 -4.400000000000001e-01 2.400000000000001e+00
-5.000000000000000e-01 -4.400000000000000e-01 2.400000000000001e+00
-5.000000000000000e-01 -4.300000000000000e-01 1.800000000000001e+00
0.000000000000000e+00 -8.500000000000000e-01 1.800000000000000e+00
0.000000000000000e+00 -8.500000000000000e-01 2.400000000000000e+00
-5.000000000000000e-01 -8.500000000000000e-01 2.399999999999999e+00
-5.000000000000000e-01 -8.500000000000000e-01 1.799999999999999e+00
0.000000000000000e+00 -4.400000000000001e-01 2.400000000000001e+00
0.000000000000000e+00 -4.500000000000000e-01 3.000000000000000e+00
-5.000000000000000e-01 -4.500000000000000e-01 3.000000000000000e+00
-5.000000000000000e-01 -4.400000000000000e-01 2.400000000000001e+00
0.000000000000000e+00 -8.500000000000000e-01 2.400000000000000e+00
0.000000000000000e+00 -8.500000000000000e-01 3.000000000000000e+00
-5.000000000000000e-01 -8.500000000000000e-01 3.000000000000000e+00
-5.000000000000000e-01 -8.500000000000000e-01 2.399999999999999e+00
        </DataArray>
      </Points>

      <Cells>
        <DataArray type="Int32" Name="connectivity" format="ascii">
0 1 2 3 4 5 6 7 8 9 10 11 12 13 14 15 16 17 18 19 20 21 22 23 24 25 26 27 28 29 30 31 32 33 34 35 36 37 38 39 40 41 42 43 44 45 46 47 48 49 50 51 52 53 54 55 56 57 58 59 60 61 62 63 64 65 66 67 68 69 70 71 72 73 74 75 76 77 78 79 80 81 82 83 84 85 86 87 88 89 90 91 92 93 94 95 96 97 98 99 100 101 102 103 104 105 106 107 108 109 110 111 112 113 114 115 116 117 118 119 120 121 122 123 124 125 126 127 128 129 130 131 132 133 134 135 136 137 138 139 140 141 142 143 144 145 146 147 148 149 150 151 152 153 154 155 156 157 158 159 160 161 162 163 164 165 166 167 168 169 170 171 172 173 174 175 176 177 178 179 180 181 182 183 184 185 186 187 188 189 190 191 192 193 194 195 196 197 198 199 200 201 202 203 204 205 206 207 208 209 210 211 212 213 214 215 216 217 218 219 220 221 222 223 
        </DataArray>
        <DataArray type="Int32" Name="offsets" format="ascii">
8 16 24 32 40 48 56 64 72 80 88 96 104 112 120 128 136 144 152 160 168 176 184 192 200 208 216 224 
        </DataArray>
        <DataArray type="UInt8" Name="types" format="ascii">
12 12 12 12 12 12 12 12 12 12 12 12 12 12 12 12 12 12 12 12 12 12 12 12 12 12 12 12 
        </DataArray>
      </Cells>

  <PointData>
        <DataArray type="Float64" Name="displacement" NumberOfComponents="3" format="ascii">
0.000000000000000e+00 0.000000000000000e+00 0.000000000000000e+00
0.000000000000000e+00 0.000000000000000e+00 0.000000000000000e+00
0.000000000000000e+00 0.000000000000000e+00 0.000000000000000e+00
0.000000000000000e+00 0.000000000000000e+00 0.000000000000000e+00
0.000000000000000e+00 0.000000000000000e+00 0.000000000000000e+00
0.000000000000000e+00 0.000000000000000e+00 0.000000000000000e+00
0.000000000000000e+00 0.000000000000000e+00 0.000000000000000e+00
0.000000000000000e+00 0.000000000000000e+00 0.000000000000000e+00
0.000000000000000e+00 0.000000000000000e+00 0.000000000000000e+00
0.000000000000000e+00 0.000000000000000e+00 0.000000000000000e+00
0.000000000000000e+00 0.000000000000000e+00 0.000000000000000e+00
0.000000000000000e+00 0.000000000000000e+00 0.000000000000000e+00
0.000000000000000e+00 0.000000000000000e+00 0.000000000000000e+00
0.000000000000000e+00 0.000000000000000e+00 0.000000000000000e+00
0.000000000000000e+00 0.000000000000000e+00 0.000000000000000e+00
0.000000000000000e+00 0.000000000000000e+00 0.000000000000000e+00
0.000000000000000e+00 0.000000000000000e+00 0.000000000000000e+00
0.000000000000000e+00 0.000000000000000e+00 0.000000000000000e+00
0.000000000000000e+00 0.000000000000000e+00 0.000000000000000e+00
0.000000000000000e+00 0.000000000000000e+00 0.000000000000000e+00
0.000000000000000e+00 0.000000000000000e+00 0.000000000000000e+00
0.000000000000000e+00 0.000000000000000e+00 0.000000000000000e+00
0.000000000000000e+00 0.000000000000000e+00 0.000000000000000e+00
0.000000000000000e+00 0.000000000000000e+00 0.000000000000000e+00
0.000000000000000e+00 0.000000000000000e+00 0.000000000000000e+00
0.000000000000000e+00 0.000000000000000e+00 0.000000000000000e+00
0.000000000000000e+00 0.000000000000000e+00 0.000000000000000e+00
0.000000000000000e+00 0.000000000000000e+00 0.000000000000000e+00
0.000000000000000e+00 0.000000000000000e+00 0.000000000000000e+00
0.000000000000000e+00 0.000000000000000e+00 0.000000000000000e+00
0.000000000000000e+00 0.000000000000000e+00 0.000000000000000e+00
0.000000000000000e+00 0.000000000000000e+00 0.000000000000000e+00
0.000000000000000e+00 0.000000000000000e+00 0.000000000000000e+00
0.000000000000000e+00 0.000000000000000e+00 0.000000000000000e+00
0.000000000000000e+00 0.000000000000000e+00 0.000000000000000e+00
0.000000000000000e+00 0.000000000000000e+00 0.000000000000000e+00
0.000000000000000e+00 0.000000000000000e+00 0.000000000000000e+00
0.000000000000000e+00 0.000000000000000e+00 0.000000000000000e+00
0.000000000000000e+00 0.000000000000000e+00 0.000000000000000e+00
0.000000000000000e+00 0.000000000000000e+00 0.000000000000000e+00
0.000000000000000e+00 0.000000000000000e+00 0.000000000000000e+00
0.000000000000000e+00 0.000000000000000e+00 0.000000000000000e+00
0.000000000000000e+00 0.000000000000000e+00 0.000000000000000e+00
0.000000000000000e+00 0.000000000000000e+00 0.000000000000000e+00
0.000000000000000e+00 0.000000000000000e+00 0.000000000000000e+00
0.000000000000000e+00 0.000000000000000e+00 0.000000000000000e+00
0.000000000000000e+00 0.000000000000000e+00 0.000000000000000e+00
0.000000000000000e+00 0.000000000000000e+00 0.000000000000000e+00
0.000000000000000e+00 0.000000000000000e+00 0.000000000000000e+00
0.000000000000000e+00 0.000000000000000e+00 0.000000000000000e+00
0.000000000000000e+00 0.000000000000000e+00 0.000000000000000e+00
0.000000000000000e+00 0.000000000000000e+00 0.000000000000000e+00
0.000000000000000e+00 0.000000000000000e+00 0.000000000000000e+00
0.000000000000000e+00 0.000000000000000e+00 0.000000000000000e+00
0.000000000000000e+00 0.000000000000000e+00 0.000000000000000e+00
0.000000000000000e+00 0.000000000000000e+00 0.000000000000000e+00
0.000000000000000e+00 0.000000000000000e+00 0.000000000000000e+00
0.000000000000000e+00 0.000000000000000e+00 0.000000000000000e+00
0.000000000000000e+00 0.000000000000000e+00 0.000000000000000e+00
0.000000000000000e+00 0.000000000000000e+00 0.000000000000000e+00
0.000000000000000e+00 0.000000000000000e+00 0.000000000000000e+00
0.000000000000000e+00 0.000000000000000e+00 0.000000000000000e+00
0.000000000000000e+00 0.000000000000000e+00 0.000000000000000e+00
0.000000000000000e+00 0.000000000000000e+00 0.000000000000000e+00
0.000000000000000e+00 0.000000000000000e+00 0.000000000000000e+00
0.000000000000000e+00 0.000000000000000e+00 0.000000000000000e+00
0.000000000000000e+00 0.000000000000000e+00 0.000000000000000e+00
0.000000000000000e+00 0.000000000000000e+00 0.000000000000000e+00
0.000000000000000e+00 0.000000000000000e+00 0.000000000000000e+00
0.000000000000000e+00 0.000000000000000e+00 0.000000000000000e+00
0.000000000000000e+00 0.000000000000000e+00 0.000000000000000e+00
0.000000000000000e+00 0.000000000000000e+00 0.000000000000000e+00
0.000000000000000e+00 0.000000000000000e+00 0.000000000000000e+00
0.000000000000000e+00 0.000000000000000e+00 0.000000000000000e+00
0.000000000000000e+00 0.000000000000000e+00 0.000000000000000e+00
0.000000000000000e+00 0.000000000000000e+00 0.000000000000000e+00
0.000000000000000e+00 0.000000000000000e+00 0.000000000000000e+00
0.000000000000000e+00 0.000000000000000e+00 0.000000000000000e+00
0.000000000000000e+00 0.000000000000000e+00 0.000000000000000e+00
0.000000000000000e+00 0.000000000000000e+00 0.000000000000000e+00
0.000000000000000e+00 0.000000000000000e+00 0.000000000000000e+00
0.000000000000000e+00 0.000000000000000e+00 0.000000000000000e+00
0.000000000000000e+00 0.000000000000000e+00 0.000000000000000e+00
0.000000000000000e+00 0.000000000000000e+00 0.000000000000000e+00
0.000000000000000e+00 0.000000000000000e+00 0.000000000000000e+00
0.000000000000000e+00 0.000000000000000e+00 0.000000000000000e+00
0.000000000000000e+00 0.000000000000000e+00 0.000000000000000e+00
0.000000000000000e+00 0.000000000000000e+00 0.000000000000000e+00
0.000000000000000e+00 0.000000000000000e+00 0.000000000000000e+00
0.000000000000000e+00 0.000000000000000e+00 0.000000000000000e+00
0.000000000000000e+00 0.000000000000000e+00 0.000000000000000e+00
0.000000000000000e+00 0.000000000000000e+00 0.000000000000000e+00
0.000000000000000e+00 0.000000000000000e+00 0.000000000000000e+00
0.000000000000000e+00 0.000000000000000e+00 0.000000000000000e+00
0.000000000000000e+00 0.000000000000000e+00 0.000000000000000e+00
0.000000000000000e+00 0.000000000000000e+00 0.000000000000000e+00
0.000000000000000e+00 0.000000000000000e+00 0.000000000000000e+00
0.000000000000000e+00 0.000000000000000e+00 0.000000000000000e+00
0.000000000000000e+00 0.000000000000000e+00 0.000000000000000e+00
0.000000000000000e+00 0.000000000000000e+00 0.000000000000000e+00
0.000000000000000e+00 0.000000000000000e+00 0.000000000000000e+00
0.000000000000000e+00 0.000000000000000e+00 0.000000000000000e+00
0.000000000000000e+00 0.000000000000000e+00 0.000000000000000e+00
0.000000000000000e+00 0.000000000000000e+00 0.000000000000000e+00
0.000000000000000e+00 0.000000000000000e+00 0.000000000000000e+00
0.000000000000000e+00 0.000000000000000e+00 0.000000000000000e+00
0.000000000000000e+00 0.000000000000000e+00 0.000000000000000e+00
0.000000000000000e+00 0.000000000000000e+00 0.000000000000000e+00
0.000000000000000e+00 0.000000000000000e+00 0.000000000000000e+00
0.000000000000000e+00 0.000000000000000e+00 0.000000000000000e+00
0.000000000000000e+00 0.000000000000000e+00 0.000000000000000e+00
0.000000000000000e+00 0.000000000000000e+00 0.000000000000000e+00
0.000000000000000e+00 0.000000000000000e+00 0.000000000000000e+00
0.000000000000000e+00 0.000000000000000e+00 0.000000000000000e+00
0.000000000000000e+00 0.000000000000000e+00 0.000000000000000e+00
0.000000000000000e+00 0.000000000000000e+00 0.000000000000000e+00
0.000000000000000e+00 0.000000000000000e+00 0.000000000000000e+00
0.000000000000000e+00 0.000000000000000e+00 0.000000000000000e+00
0.000000000000000e+00 0.000000000000000e+00 0.000000000000000e+00
0.000000000000000e+00 0.000000000000000e+00 0.000000000000000e+00
0.000000000000000e+00 0.000000000000000e+00 0.000000000000000e+00
0.000000000000000e+00 0.000000000000000e+00 0.000000000000000e+00
0.000000000000000e+00 0.000000000000000e+00 0.000000000000000e+00
0.000000000000000e+00 0.000000000000000e+00 0.000000000000000e+00
0.000000000000000e+00 0.000000000000000e+00 0.000000000000000e+00
0.000000000000000e+00 0.000000000000000e+00 0.000000000000000e+00
0.000000000000000e+00 0.000000000000000e+00 0.000000000000000e+00
0.000000000000000e+00 0.000000000000000e+00 0.000000000000000e+00
0.000000000000000e+00 0.000000000000000e+00 0.000000000000000e+00
0.000000000000000e+00 0.000000000000000e+00 0.000000000000000e+00
0.000000000000000e+00 0.000000000000000e+00 0.000000000000000e+00
0.000000000000000e+00 0.000000000000000e+00 0.000000000000000e+00
0.000000000000000e+00 0.000000000000000e+00 0.000000000000000e+00
0.000000000000000e+00 0.000000000000000e+00 0.000000000000000e+00
0.000000000000000e+00 0.000000000000000e+00 0.000000000000000e+00
0.000000000000000e+00 0.000000000000000e+00 0.000000000000000e+00
0.000000000000000e+00 0.000000000000000e+00 0.000000000000000e+00
0.000000000000000e+00 0.000000000000000e+00 0.000000000000000e+00
0.000000000000000e+00 0.000000000000000e+00 0.000000000000000e+00
0.000000000000000e+00 0.000000000000000e+00 0.000000000000000e+00
0.000000000000000e+00 0.000000000000000e+00 0.000000000000000e+00
0.000000000000000e+00 0.000000000000000e+00 0.000000000000000e+00
0.000000000000000e+00 0.000000000000000e+00 0.000000000000000e+00
0.000000000000000e+00 0.000000000000000e+00 0.000000000000000e+00
0.000000000000000e+00 0.000000000000000e+00 0.000000000000000e+00
0.000000000000000e+00 0.000000000000000e+00 0.000000000000000e+00
0.000000000000000e+00 0.000000000000000e+00 0.000000000000000e+00
0.000000000000000e+00 0.000000000000000e+00 0.000000000000000e+00
0.000000000000000e+00 0.000000000000000e+00 0.000000000000000e+00
0.000000000000000e+00 0.000000000000000e+00 0.000000000000000e+00
0.000000000000000e+00 0.000000000000000e+00 0.000000000000000e+00
0.000000000000000e+00 0.000000000000000e+00 0.000000000000000e+00
0.000000000000000e+00 0.000000000000000e+00 0.000000000000000e+00
0.000000000000000e+00 0.000000000000000e+00 0.000000000000000e+00
0.000000000000000e+00 0.000000000000000e+00 0.000000000000000e+00
0.000000000000000e+00 0.000000000000000e+00 0.000000000000000e+00
0.000000000000000e+00 0.000000000000000e+00 0.000000000000000e+00
0.000000000000000e+00 0.000000000000000e+00 0.000000000000000e+00
0.000000000000000e+00 0.000000000000000e+00 0.000000000000000e+00
0.000000000000000e+00 0.000000000000000e+00 0.000000000000000e+00
0.000000000000000e+00 0.000000000000000e+00 0.000000000000000e+00
0.000000000000000e+00 0.000000000000000e+00 0.000000000000000e+00
0.000000000000000e+00 0.000000000000000e+00 0.000000000000000e+00
0.000000000000000e+00 0.000000000000000e+00 0.000000000000000e+00
0.000000000000000e+00 0.000000000000000e+00 0.000000000000000e+00
0.000000000000000e+00 0.000000000000000e+00 0.000000000000000e+00
0.000000000000000e+00 0.000000000000000e+00 0.000000000000000e+00
0.000000000000000e+00 0.000000000000000e+00 0.000000000000000e+00
0.000000000000000e+00 0.000000000000000e+00 0.000000000000000e+00
0.000000000000000e+00 0.000000000000000e+00 0.000000000000000e+00
0.000000000000000e+00 0.000000000000000e+00 0.000000000000000e+00
0.000000000000000e+00 0.000000000000000e+00 0.000000000000000e+00
0.000000000000000e+00 0.000000000000000e+00 0.000000000000000e+00
0.000000000000000e+00 0.000000000000000e+00 0.000000000000000e+00
0.000000000000000e+00 0.000000000000000e+00 0.000000000000000e+00
0.000000000000000e+00 0.000000000000000e+00 0.000000000000000e+00
0.000000000000000e+00 0.000000000000000e+00 0.000000000000000e+00
0.000000000000000e+00 0.000000000000000e+00 0.000000000000000e+00
0.000000000000000e+00 0.000000000000000e+00 0.000000000000000e+00
0.000000000000000e+00 0.000000000000000e+00 0.000000000000000e+00
0.000000000000000e+00 0.000000000000000e+00 0.000000000000000e+00
0.000000000000000e+00 0.000000000000000e+00 0.000000000000000e+00
0.000000000000000e+00 0.000000000000000e+00 0.000000000000000e+00
0.000000000000000e+00 0.000000000000000e+00 0.000000000000000e+00
0.000000000000000e+00 0.000000000000000e+00 0.000000000000000e+00
0.000000000000000e+00 0.000000000000000e+00 0.000000000000000e+00
0.000000000000000e+00 0.000000000000000e+00 0.000000000000000e+00
0.000000000000000e+00 0.000000000000000e+00 0.000000000000000e+00
0.000000000000000e+00 0.000000000000000e+00 0.000000000000000e+00
0.000000000000000e+00 0.000000000000000e+00 0.000000000000000e+00
0.000000000000000e+00 0.000000000000000e+00 0.000000000000000e+00
0.000000000000000e+00 0.000000000000000e+00 0.000000000000000e+00
0.000000000000000e+00 0.000000000000000e+00 0.000000000000000e+00
0.000000000000000e+00 0.000000000000000e+00 0.000000000000000e+00
0.000000000000000e+00 0.000000000000000e+00 0.000000000000000e+00
0.000000000000000e+00 0.000000000000000e+00 0.000000000000000e+00