<?xml version="1.0" ?> 
<!-- 
# vtk DataFile Version 3.0
-->
<VTKFile type="UnstructuredGrid" version="0.1" compressor="vtkZLibDataCompressor" byte_order="LittleEndian">
  <UnstructuredGrid>
    <FieldData>
      <DataArray type="Float64" Name="TIME" NumberOfTuples="1" format="ascii">
1.000000000000000e+00 
      </DataArray>
    </FieldData>

    <Piece NumberOfPoints="9423" NumberOfCells="349" >
      <Points>
        <DataArray type="Float64" NumberOfComponents="3" format="ascii">
-5.000000000000000e-01 0.000000000000000e+00 5.000000000000000e-01
-5.000000000000000e-01 0.000000000000000e+00 4.000000000000001e-01
-5.000000000000000e-01 9.999999999999995e-02 4.000000000000000e-01
-5.000000000000000e-01 9.999999999999998e-02 5.000000000000000e-01
-3.999999999999997e-01 0.000000000000000e+00 5.000000000000000e-01
-3.999999999999998e-01 0.000000000000000e+00 4.000000000000001e-01
-4.000000000000000e-01 9.999999999999998e-02 4.000000000000001e-01
-4.000000000000000e-01 9.999999999999998e-02 5.000000000000000e-01
-5.000000000000000e-01 0.000000000000000e+00 4.500000000000001e-01
-5.000000000000000e-01 4.999999999999998e-02 4.000000000000000e-01
-5.000000000000000e-01 9.999999999999996e-02 4.500000000000000e-01
-5.000000000000000e-01 4.999999999999999e-02 5.000000000000000e-01
-3.999999999999998e-01 0.000000000000000e+00 4.500000000000001e-01
-3.999999999999999e-01 4.999999999999999e-02 4.000000000000001e-01
-4.000000000000000e-01 9.999999999999998e-02 4.500000000000001e-01
-3.999999999999999e-01 4.999999999999999e-02 5.000000000000000e-01
-4.499999999999998e-01 0.000000000000000e+00 5.000000000000000e-01
-4.499999999999999e-01 0.000000000000000e+00 4.000000000000001e-01
-4.500000000000000e-01 9.999999999999996e-02 4.000000000000000e-01
-4.500000000000000e-01 9.999999999999998e-02 5.000000000000000e-01
-4.500000000000000e-01 4.999999999999999e-02 5.000000000000000e-01
-4.500000000000000e-01 4.999999999999998e-02 4.000000000000001e-01
-4.500000000000000e-01 0.000000000000000e+00 4.500000000000001e-01
-4.500000000000000e-01 9.999999999999998e-02 4.500000000000000e-01
-5.000000000000000e-01 4.999999999999998e-02 4.500000000000000e-01
-3.999999999999999e-01 4.999999999999999e-02 4.500000000000001e-01
-4.500000000000000e-01 4.999999999999999e-02 4.500000000000000e-01
-5.000000000000000e-01 0.000000000000000e+00 4.000000000000001e-01
-5.000000000000000e-01 0.000000000000000e+00 2.999999999999999e-01
-5.000000000000000e-01 1.000000000000000e-01 2.999999999999999e-01
-5.000000000000000e-01 9.999999999999995e-02 4.000000000000000e-01
-3.999999999999998e-01 0.000000000000000e+00 4.000000000000001e-01
-3.999999999999998e-01 0.000000000000000e+00 2.999999999999999e-01
-4.000000000000000e-01 1.000000000000000e-01 3.000000000000000e-01
-4.000000000000000e-01 9.999999999999998e-02 4.000000000000001e-01
-5.000000000000000e-01 0.000000000000000e+00 3.500000000000000e-01
-5.000000000000000e-01 5.000000000000002e-02 2.999999999999999e-01
-5.000000000000000e-01 9.999999999999999e-02 3.500000000000000e-01
-5.000000000000000e-01 4.999999999999998e-02 4.000000000000000e-01
-3.999999999999998e-01 0.000000000000000e+00 3.500000000000000e-01
-3.999999999999999e-01 5.000000000000000e-02 2.999999999999999e-01
-4.000000000000000e-01 9.999999999999999e-02 3.500000000000000e-01
-3.999999999999999e-01 4.999999999999999e-02 4.000000000000001e-01
-4.499999999999999e-01 0.000000000000000e+00 4.000000000000001e-01
-4.499999999999999e-01 0.000000000000000e+00 2.999999999999999e-01
-4.500000000000000e-01 1.000000000000000e-01 2.999999999999999e-01
-4.500000000000000e-01 9.999999999999996e-02 4.000000000000000e-01
-4.500000000000000e-01 4.999999999999998e-02 4.000000000000001e-01
-4.500000000000000e-01 5.000000000000000e-02 2.999999999999999e-01
-4.499999999999999e-01 0.000000000000000e+00 3.500000000000001e-01
-4.500000000000000e-01 9.999999999999999e-02 3.500000000000000e-01
-5.000000000000000e-01 5.000000000000001e-02 3.500000000000000e-01
-4.000000000000000e-01 5.000000000000000e-02 3.500000000000000e-01
-4.500000000000000e-01 5.000000000000000e-02 3.500000000000001e-01
-5.000000000000000e-01 0.000000000000000e+00 2.999999999999999e-01
-5.000000000000000e-01 0.000000000000000e+00 2.000000000000000e-01
-5.000000000000000e-01 1.000000000000000e-01 1.999999999999999e-01
-5.000000000000000e-01 1.000000000000000e-01 2.999999999999999e-01
-3.999999999999998e-01 0.000000000000000e+00 2.999999999999999e-01
-3.999999999999998e-01 0.000000000000000e+00 2.000000000000000e-01
-4.000000000000000e-01 1.000000000000000e-01 2.000000000000000e-01
-4.000000000000000e-01 1.000000000000000e-01 3.000000000000000e-01
-5.000000000000000e-01 0.000000000000000e+00 2.499999999999999e-01
-5.000000000000000e-01 5.000000000000000e-02 2.000000000000000e-01
-5.000000000000000e-01 1.000000000000000e-01 2.499999999999999e-01
-5.000000000000000e-01 5.000000000000002e-02 2.999999999999999e-01
-3.999999999999998e-01 0.000000000000000e+00 2.499999999999999e-01
-3.999999999999999e-01 5.000000000000000e-02 2.000000000000000e-01
-4.000000000000000e-01 1.000000000000000e-01 2.500000000000000e-01
-3.999999999999999e-01 5.000000000000000e-02 2.999999999999999e-01
-4.499999999999999e-01 0.000000000000000e+00 2.999999999999999e-01
-4.499999999999999e-01 0.000000000000000e+00 2.000000000000000e-01
-4.500000000000000e-01 1.000000000000000e-01 2.000000000000000e-01
-4.500000000000000e-01 1.000000000000000e-01 2.999999999999999e-01
-4.500000000000000e-01 5.000000000000000e-02 2.999999999999999e-01
-4.500000000000000e-01 5.000000000000000e-02 2.000000000000000e-01
-4.499999999999999e-01 0.000000000000000e+00 2.499999999999999e-01
-4.500000000000001e-01 1.000000000000000e-01 2.499999999999999e-01
-5.000000000000000e-01 5.000000000000001e-02 2.499999999999999e-01
-3.999999999999999e-01 5.000000000000000e-02 2.499999999999999e-01
-4.500000000000000e-01 5.000000000000000e-02 2.499999999999999e-01
-5.000000000000000e-01 0.000000000000000e+00 2.000000000000000e-01
-5.000000000000000e-01 0.000000000000000e+00 9.999999999999998e-02
-5.000000000000000e-01 9.999999999999999e-02 9.999999999999998e-02
-5.000000000000000e-01 1.000000000000000e-01 1.999999999999999e-01
-3.999999999999998e-01 0.000000000000000e+00 2.000000000000000e-01
-3.999999999999999e-01 0.000000000000000e+00 9.999999999999995e-02
-4.000000000000000e-01 1.000000000000000e-01 9.999999999999995e-02
-4.000000000000000e-01 1.000000000000000e-01 2.000000000000000e-01
-5.000000000000000e-01 0.000000000000000e+00 1.500000000000000e-01
-5.000000000000000e-01 5.000000000000000e-02 9.999999999999998e-02
-5.000000000000000e-01 1.000000000000000e-01 1.500000000000000e-01
-5.000000000000000e-01 5.000000000000000e-02 2.000000000000000e-01
-3.999999999999999e-01 0.000000000000000e+00 1.500000000000000e-01
-3.999999999999999e-01 5.000000000000002e-02 9.999999999999995e-02
-4.000000000000000e-01 1.000000000000000e-01 1.500000000000000e-01
-3.999999999999999e-01 5.000000000000000e-02 2.000000000000000e-01
-4.499999999999999e-01 0.000000000000000e+00 2.000000000000000e-01
-4.500000000000000e-01 0.000000000000000e+00 9.999999999999996e-02
-4.500000000000000e-01 1.000000000000000e-01 9.999999999999996e-02
-4.500000000000000e-01 1.000000000000000e-01 2.000000000000000e-01
-4.500000000000000e-01 5.000000000000000e-02 2.000000000000000e-01
-4.500000000000000e-01 5.000000000000000e-02 9.999999999999998e-02
-4.500000000000000e-01 0.000000000000000e+00 1.500000000000000e-01
-4.500000000000000e-01 1.000000000000000e-01 1.500000000000000e-01
-5.000000000000000e-01 5.000000000000000e-02 1.500000000000000e-01
-3.999999999999999e-01 5.000000000000000e-02 1.500000000000000e-01
-4.500000000000000e-01 5.000000000000000e-02 1.500000000000000e-01
-5.000000000000000e-01 0.000000000000000e+00 9.999999999999998e-02
-5.000000000000000e-01 0.000000000000000e+00 0.000000000000000e+00
-5.000000000000000e-01 1.000000000000000e-01 1.387778780781446e-17
-5.000000000000000e-01 9.999999999999999e-02 9.999999999999998e-02
-3.999999999999999e-01 0.000000000000000e+00 9.999999999999995e-02
-3.999999999999999e-01 0.000000000000000e+00 0.000000000000000e+00
-3.999999999999999e-01 1.000000000000000e-01 6.245004513516505e-18
-4.000000000000000e-01 1.000000000000000e-01 9.999999999999995e-02
-5.000000000000000e-01 0.000000000000000e+00 4.999999999999999e-02
-5.000000000000000e-01 5.000000000000002e-02 6.938893903907228e-18
-5.000000000000000e-01 1.000000000000000e-01 5.000000000000000e-02
-5.000000000000000e-01 5.000000000000000e-02 9.999999999999998e-02
-3.999999999999999e-01 0.000000000000000e+00 4.999999999999998e-02
-3.999999999999999e-01 5.000000000000002e-02 3.122502256758252e-18
-3.999999999999999e-01 1.000000000000000e-01 4.999999999999998e-02
-3.999999999999999e-01 5.000000000000002e-02 9.999999999999995e-02
-4.500000000000000e-01 0.000000000000000e+00 9.999999999999996e-02
-4.500000000000000e-01 0.000000000000000e+00 0.000000000000000e+00
-4.500000000000000e-01 1.000000000000000e-01 1.006139616066548e-17
-4.500000000000000e-01 1.000000000000000e-01 9.999999999999996e-02
-4.500000000000000e-01 5.000000000000000e-02 9.999999999999998e-02
-4.500000000000000e-01 5.000000000000002e-02 5.030698080332742e-18
-4.500000000000000e-01 0.000000000000000e+00 4.999999999999998e-02
-4.500000000000000e-01 1.000000000000000e-01 4.999999999999998e-02
-5.000000000000000e-01 5.000000000000001e-02 4.999999999999999e-02
-3.999999999999999e-01 5.000000000000002e-02 4.999999999999998e-02
-4.500000000000000e-01 5.000000000000000e-02 4.999999999999999e-02
-5.000000000000000e-01 9.999999999999998e-02 5.000000000000000e-01
-5.000000000000000e-01 9.999999999999995e-02 4.000000000000000e-01
-5.000000000000000e-01 2.000000000000000e-01 4.000000000000000e-01
-5.000000000000000e-01 2.000000000000000e-01 5.000000000000000e-01
-4.000000000000000e-01 9.999999999999998e-02 5.000000000000000e-01
-4.000000000000000e-01 9.999999999999998e-02 4.000000000000001e-01
[...]
  <PointData>
        <DataArray type="Float64" Name="acceleration" NumberOfComponents="3" format="ascii">
0.000000000000000e+00 0.000000000000000e+00 0.000000000000000e+00
0.000000000000000e+00 0.000000000000000e+00 0.000000000000000e+00
0.000000000000000e+00 0.000000000000000e+00 0.000000000000000e+00
0.000000000000000e+00 0.000000000000000e+00 0.000000000000000e+00
0.000000000000000e+00 0.000000000000000e+00 0.000000000000000e+00
0.000000000000000e+00 0.000000000000000e+00 0.000000000000000e+00
0.000000000000000e+00 0.000000000000000e+00 0.000000000000000e+00
0.000000000000000e+00 0.000000000000000e+00 0.000000000000000e+00
0.000000000000000e+00 0.000000000000000e+00 0.000000000000000e+00
0.000000000000000e+00 0.000000000000000e+00 0.000000000000000e+00
0.000000000000000e+00 0.000000000000000e+00 0.000000000000000e+00
0.000000000000000e+00 0.000000000000000e+00 0.000000000000000e+00
0.000000000000000e+00 0.000000000000000e+00 0.000000000000000e+00
0.000000000000000e+00 0.000000000000000e+00 0.000000000000000e+00
0.000000000000000e+00 0.000000000000000e+00 0.000000000000000e+00
0.000000000000000e+00 0.000000000000000e+00 0.000000000000000e+00
0.000000000000000e+00 0.000000000000000e+00 0.000000000000000e+00
0.000000000000000e+00 0.000000000000000e+00 0.000000000000000e+00
0.000000000000000e+00 0.000000000000000e+00 0.000000000000000e+00
0.000000000000000e+00 0.000000000000000e+00 0.000000000000000e+00
0.000000000000000e+00 0.000000000000000e+00 0.000000000000000e+00
0.000000000000000e+00 0.000000000000000e+00 0.000000000000000e+00
0.000000000000000e+00 0.000000000000000e+00 0.000000000000000e+00
0.000000000000000e+00 0.000000000000000e+00 0.000000000000000e+00
0.000000000000000e+00 0.000000000000000e+00 0.000000000000000e+00
0.000000000000000e+00 0.000000000000000e+00 0.000000000000000e+00
0.000000000000000e+00 0.000000000000000e+00 0.000000000000000e+00
0.000000000000000e+00 0.000000000000000e+00 0.000000000000000e+00
0.000000000000000e+00 0.000000000000000e+00 0.000000000000000e+00
0.000000000000000e+00 0.000000000000000e+00 0.000000000000000e+00
0.000000000000000e+00 0.000000000000000e+00 0.000000000000000e+00
0.000000000000000e+00 0.000000000000000e+00 0.000000000000000e+00
0.000000000000000e+00 0.000000000000000e+00 0.000000000000000e+00
0.000000000000000e+00 0.000000000000000e+00 0.000000000000000e+00
0.000000000000000e+00 0.000000000000000e+00 0.000000000000000e+00
0.000000000000000e+00 0.000000000000000e+00 0.000000000000000e+00
0.000000000000000e+00 0.000000000000000e+00 0.000000000000000e+00
0.000000000000000e+00 0.000000000000000e+00 0.000000000000000e+00
0.000000000000000e+00 0.000000000000000e+00 0.000000000000000e+00
0.000000000000000e+00 0.000000000000000e+00 0.000000000000000e+00
0.000000000000000e+00 0.000000000000000e+00 0.000000000000000e+00
0.000000000000000e+00 0.000000000000000e+00 0.000000000000000e+00
0.000000000000000e+00 0.000000000000000e+00 0.000000000000000e+00
0.000000000000000e+00 0.000000000000000e+00 0.000000000000000e+00
0.000000000000000e+00 0.000000000000000e+00 0.000000000000000e+00
0.000000000000000e+00 0.000000000000000e+00 0.000000000000000e+00
0.000000000000000e+00 0.000000000000000e+00 0.000000000000000e+00
0.000000000000000e+00 0.000000000000000e+00 0.000000000000000e+00
0.000000000000000e+00 0.000000000000000e+00 0.000000000000000e+00
0.000000000000000e+00 0.000000000000000e+00 0.000000000000000e+00
0.000000000000000e+00 0.000000000000000e+00 0.000000000000000e+00
0.000000000000000e+00 0.000000000000000e+00 0.000000000000000e+00
0.000000000000000e+00 0.000000000000000e+00 0.000000000000000e+00
0.000000000000000e+00 0.000000000000000e+00 0.000000000000000e+00
0.000000000000000e+00 0.000000000000000e+00 0.000000000000000e+00
0.000000000000000e+00 0.000000000000000e+00 0.000000000000000e+00
0.000000000000000e+00 0.000000000000000e+00 0.000000000000000e+00
0.000000000000000e+00 0.000000000000000e+00 0.000000000000000e+00
0.000000000000000e+00 0.000000000000000e+00 0.000000000000000e+00
0.000000000000000e+00 0.000000000000000e+00 0.000000000000000e+00
0.000000000000000e+00 0.000000000000000e+00 0.000000000000000e+00
0.000000000000000e+00 0.000000000000000e+00 0.000000000000000e+00
0.000000000000000e+00 0.000000000000000e+00 0.000000000000000e+00
0.000000000000000e+00 0.000000000000000e+00 0.000000000000000e+00
0.000000000000000e+00 0.000000000000000e+00 0.000000000000000e+00
0.000000000000000e+00 0.000000000000000e+00 0.000000000000000e+00
0.000000000000000e+00 0.000000000000000e+00 0.000000000000000e+00
0.000000000000000e+00 0.000000000000000e+00 0.000000000000000e+00
0.000000000000000e+00 0.000000000000000e+00 0.000000000000000e+00
0.000000000000000e+00 0.000000000000000e+00 0.000000000000000e+00
0.000000000000000e+00 0.000000000000000e+00 0.000000000000000e+00
0.000000000000000e+00 0.000000000000000e+00 0.000000000000000e+00
0.000000000000000e+00 0.000000000000000e+00 0.000000000000000e+00
0.000000000000000e+00 0.000000000000000e+00 0.000000000000000e+00
0.000000000000000e+00 0.000000000000000e+00 0.000000000000000e+00
0.000000000000000e+00 0.000000000000000e+00 0.000000000000000e+00
0.000000000000000e+00 0.000000000000000e+00 0.000000000000000e+00
0.000000000000000e+00 0.000000000000000e+00 0.000000000000000e+00
0.000000000000000e+00 0.000000000000000e+00 0.000000000000000e+00
0.000000000000000e+00 0.000000000000000e+00 0.000000000000000e+00
0.000000000000000e+00 0.000000000000000e+00 0.000000000000000e+00
0.000000000000000e+00 0.000000000000000e+00 0.000000000000000e+00
0.000000000000000e+00 0.000000000000000e+00 0.000000000000000e+00
0.000000000000000e+00 0.000000000000000e+00 0.000000000000000e+00
0.000000000000000e+00 0.000000000000000e+00 0.000000000000000e+00
0.000000000000000e+00 0.000000000000000e+00 0.000000000000000e+00
0.000000000000000e+00 0.000000000000000e+00 0.000000000000000e+00
0.000000000000000e+00 0.000000000000000e+00 0.000000000000000e+00
0.000000000000000e+00 0.000000000000000e+00 0.000000000000000e+00
0.000000000000000e+00 0.000000000000000e+00 0.000000000000000e+00
0.000000000000000e+00 0.000000000000000e+00 0.000000000000000e+00
0.000000000000000e+00 0.000000000000000e+00 0.000000000000000e+00
0.000000000000000e+00 0.000000000000000e+00 0.000000000000000e+00
0.000000000000000e+00 0.000000000000000e+00 0.000000000000000e+00
0.000000000000000e+00 0.000000000000000e+00 0.000000000000000e+00
0.000000000000000e+00 0.000000000000000e+00 0.000000000000000e+00
0.000000000000000e+00 0.000000000000000e+00 0.000000000000000e+00
0.000000000000000e+00 0.000000000000000e+00 0.000000000000000e+00
0.000000000000000e+00 0.000000000000000e+00 0.000000000000000e+00
0.000000000000000e+00 0.000000000000000e+00 0.000000000000000e+00
0.000000000000000e+00 0.000000000000000e+00 0.000000000000000e+00
0.000000000000000e+00 0.000000000000000e+00 0.000000000000000e+00
0.000000000000000e+00 0.000000000000000e+00 0.000000000000000e+00
0.000000000000000e+00 0.000000000000000e+00 0.000000000000000e+00
0.000000000000000e+00 0.000000000000000e+00 0.000000000000000e+00
0.000000000000000e+00 0.000000000000000e+00 0.000000000000000e+00
0.000000000000000e+00 0.000000000000000e+00 0.000000000000000e+00
0.000000000000000e+00 0.000000000000000e+00 0.000000000000000e+00
0.000000000000000e+00 0.000000000000000e+00 0.000000000000000e+00
0.000000000000000e+00 0.000000000000000e+00 0.000000000000000e+00
0.000000000000000e+00 0.000000000000000e+00 0.000000000000000e+00
0.000000000000000e+00 0.000000000000000e+00 0.000000000000000e+00
0.000000000000000e+00 0.000000000000000e+00 0.000000000000000e+00
0.000000000000000e+00 0.000000000000000e+00 0.000000000000000e+00
0.000000000000000e+00 0.000000000000000e+00 0.000000000000000e+00
0.000000000000000e+00 0.000000000000000e+00 0.000000000000000e+00
0.000000000000000e+00 0.000000000000000e+00 0.000000000000000e+00
0.000000000000000e+00 0.000000000000000e+00 0.000000000000000e+00
0.000000000000000e+00 0.000000000000000e+00 0.000000000000000e+00
0.000000000000000e+00 0.000000000000000e+00 0.000000000000000e+00
0.000000000000000e+00 0.000000000000000e+00 0.000000000000000e+00
0.000000000000000e+00 0.000000000000000e+00 0.000000000000000e+00
0.000000000000000e+00 0.000000000000000e+00 0.000000000000000e+00
0.000000000000000e+00 0.000000000000000e+00 0.000000000000000e+00
0.000000000000000e+00 0.000000000000000e+00 0.000000000000000e+00
0.000000000000000e+00 0.000000000000000e+00 0.000000000000000e+00
0.000000000000000e+00 0.000000000000000e+00 0.000000000000000e+00
0.000000000000000e+00 0.000000000000000e+00 0.000000000000000e+00
0.000000000000000e+00 0.000000000000000e+00 0.000000000000000e+00
0.000000000000000e+00 0.000000000000000e+00 0.000000000000000e+00
0.000000000000000e+00 0.000000000000000e+00 0.000000000000000e+00
0.000000000000000e+00 0.000000000000000e+00 0.000000000000000e+00
0.000000000000000e+00 0.000000000000000e+00 0.000000000000000e+00
0.000000000000000e+00 0.000000000000000e+00 0.000000000000000e+00
0.000000000000000e+00 0.000000000000000e+00 0.000000000000000e+00
0.000000000000000e+00 0.000000000000000e+00 0.000000000000000e+00
0.000000000000000e+00 0.000000000000000e+00 0.000000000000000e+00
0.000000000000000e+00 0.000000000000000e+00 0.000000000000000e+00
0.000000000000000e+00 0.000000000000000e+00 0.000000000000000e+00
0.000000000000000e+00 0.000000000000000e+00 0.000000000000000e+00
0.000000000000000e+00 0.000000000000000e+00 0.000000000000000e+00
0.000000000000000e+00 0.000000000000000e+00 0.000000000000000e+00
0.000000000000000e+00 0.000000000000000e+00 0.000000000000000e+00
0.000000000000000e+00 0.000000000000000e+00 0.000000000000000e+00
0.000000000000000e+00 0.000000000000000e+00 0.000000000000000e+00
0.000000000000000e+00 0.000000000000000e+00 0.000000000000000e+00
0.000000000000000e+00 0.000000000000000e+00 0.000000000000000e+00
0.000000000000000e+00 0.000000000000000e+00 0.000000000000000e+00
0.000000000000000e+00 0.000000000000000e+00 0.000000000000000e+00
0.000000000000000e+00 0.000000000000000e+00 0.000000000000000e+00
0.000000000000000e+00 0.000000000000000e+00 0.000000000000000e+00
0.000000000000000e+00 0.000000000000000e+00 0.000000000000000e+00
0.000000000000000e+00 0.000000000000000e+00 0.000000000000000e+00
0.000000000000000e+00 0.000000000000000e+00 0.000000000000000e+00
0.000000000000000e+00 0.000000000000000e+00 0.000000000000000e+00
0.000000000000000e+00 0.000000000000000e+00 0.000000000000000e+00
0.000000000000000e+00 0.000000000000000e+00 0.000000000000000e+00
0.000000000000000e+00 0.000000000000000e+00 0.000000000000000e+00
0.000000000000000e+00 0.000000000000000e+00 0.000000000000000e+00
0.000000000000000e+00 0.000000000000000e+00 0.000000000000000e+00
0.000000000000000e+00 0.000000000000000e+00 0.000000000000000e+00
0.000000000000000e+00 0.000000000000000e+00 0.000000000000000e+00
0.000000000000000e+00 0.000000000000000e+00 0.000000000000000e+00
0.000000000000000e+00 0.000000000000000e+00 0.000000000000000e+00
0.000000000000000e+00 0.000000000000000e+00 0.000000000000000e+00
0.000000000000000e+00 0.000000000000000e+00 0.000000000000000e+00
0.000000000000000e+00 0.000000000000000e+00 0.000000000000000e+00
0.000000000000000e+00 0.000000000000000e+00 0.000000000000000e+00
0.000000000000000e+00 0.000000000000000e+00 0.000000000000000e+00
0.000000000000000e+00 0.000000000000000e+00 0.000000000000000e+00
0.000000000000000e+00 0.000000000000000e+00 0.000000000000000e+00
0.000000000000000e+00 0.000000000000000e+00 0.000000000000000e+00
0.000000000000000e+00 0.000000000000000e+00 0.000000000000000e+00
0.000000000000000e+00 0.000000000000000e+00 0.000000000000000e+00
0.000000000000000e+00 0.000000000000000e+00 0.000000000000000e+00
0.000000000000000e+00 0.000000000000000e+00 0.000000000000000e+00
0.000000000000000e+00 0.000000000000000e+00 0.000000000000000e+00
0.000000000000000e+00 0.000000000000000e+00 0.000000000000000e+00
0.000000000000000e+00 0.000000000000000e+00 0.000000000000000e+00
0.000000000000000e+00 0.000000000000000e+00 0.000000000000000e+00
0.000000000000000e+00 0.000000000000000e+00 0.000000000000000e+00
0.000000000000000e+00 0.000000000000000e+00 0.000000000000000e+00
0.000000000000000e+00 0.000000000000000e+00 0.000000000000000e+00
0.000000000000000e+00 0.000000000000000e+00 0.000000000000000e+00
0.000000000000000e+00 0.000000000000000e+00 0.000000000000000e+00
0.000000000000000e+00 0.000000000000000e+00 0.000000000000000e+00
0.000000000000000e+00 0.000000000000000e+00 0.000000000000000e+00
0.000000000000000e+00 0.000000000000000e+00 0.000000000000000e+00
0.000000000000000e+00 0.000000000000000e+00 0.000000000000000e+00
0.000000000000000e+00 0.000000000000000e+00 0.000000000000000e+00
0.000000000000000e+00 0.000000000000000e+00 0.000000000000000e+00
0.000000000000000e+00 0.000000000000000e+00 0.000000000000000e+00
0.000000000000000e+00 0.000000000000000e+00 0.000000000000000e+00
0.000000000000000e+00 0.000000000000000e+00 0.000000000000000e+00
0.000000000000000e+00 0.000000000000000e+00 0.000000000000000e+00
0.000000000000000e+00 0.000000000000000e+00 0.000000000000000e+00
0.000000000000000e+00 0.000000000000000e+00 0.000000000000000e+00
0.000000000000000e+00 0.000000000000000e+00 0.000000000000000e+00
0.000000000000000e+00 0.000000000000000e+00 0.000000000000000e+00
0.000000000000000e+00 0.000000000000000e+00 0.000000000000000e+00
0.000000000000000e+00 0.000000000000000e+00 0.000000000000000e+00
0.000000000000000e+00 0.000000000000000e+00 0.000000000000000e+00
0.000000000000000e+00 0.000000000000000e+00 0.000000000000000e+00
0.000000000000000e+00 0.000000000000000e+00 0.000000000000000e+00
0.000000000000000e+00 0.000000000000000e+00 0.000000000000000e+00
0.000000000000000e+00 0.000000000000000e+00 0.000000000000000e+00
0.000000000000000e+00 0.000000000000000e+00 0.000000000000000e+00
0.000000000000000e+00 0.000000000000000e+00 0.000000000000000e+00
0.000000000000000e+00 0.000000000000000e+00 0.000000000000000e+00
0.000000000000000e+00 0.000000000000000e+00 0.000000000000000e+00
0.000000000000000e+00 0.000000000000000e+00 0.000000000000000e+00
0.000000000000000e+00 0.000000000000000e+00 0.000000000000000e+00
0.000000000000000e+00 0.000000000000000e+00 0.000000000000000e+00
0.000000000000000e+00 0.000000000000000e+00 0.000000000000000e+00
0.000000000000000e+00 0.000000000000000e+00 0.000000000000000e+00
0.000000000000000e+00 0.000000000000000e+00 0.000000000000000e+00
0.000000000000000e+00 0.000000000000000e+00 0.000000000000000e+00
0.000000000000000e+00 0.000000000000000e+00 0.000000000000000e+00
0.000000000000000e+00 0.000000000000000e+00 0.000000000000000e+00
0.000000000000000e+00 0.000000000000000e+00 0.000000000000000e+00
0.000000000000000e+00 0.000000000000000e+00 0.000000000000000e+00
0.000000000000000e+00 0.000000000000000e+00 0.000000000000000e+00
0.000000000000000e+00 0.000000000000000e+00 0.000000000000000e+00
0.000000000000000e+00 0.000000000000000e+00 0.000000000000000e+00
0.000000000000000e+00 0.000000000000000e+00 0.000000000000000e+00
0.000000000000000e+00 0.000000000000000e+00 0.000000000000000e+00
0.000000000000000e+00 0.000000000000000e+00 0.000000000000000e+00
0.000000000000000e+00 0.000000000000000e+00 0.000000000000000e+00
0.000000000000000e+00 0.000000000000000e+00 0.000000000000000e+00
0.000000000000000e+00 0.000000000000000e+00 0.000000000000000e+00
0.000000000000000e+00 0.000000000000000e+00 0.000000000000000e+00
0.000000000000000e+00 0.000000000000000e+00 0.000000000000000e+00
0.000000000000000e+00 0.000000000000000e+00 0.000000000000000e+00
0.000000000000000e+00 0.000000000000000e+00 0.000000000000000e+00
0.000000000000000e+00 0.000000000000000e+00 0.000000000000000e+00
0.000000000000000e+00 0.000000000000000e+00 0.000000000000000e+00
0.000000000000000e+00 0.000000000000000e+00 0.000000000000000e+00
0.000000000000000e+00 0.000000000000000e+00 0.000000000000000e+00
0.000000000000000e+00 0.000000000000000e+00 0.000000000000000e+00
0.000000000000000e+00 0.000000000000000e+00 0.000000000000000e+00
0.000000000000000e+00 0.000000000000000e+00 0.000000000000000e+00
0.000000000000000e+00 0.000000000000000e+00 0.000000000000000e+00
0.000000000000000e+00 0.000000000000000e+00 0.000000000000000e+00
0.000000000000000e+00 0.000000000000000e+00 0.000000000000000e+00
0.000000000000000e+00 0.000000000000000e+00 0.000000000000000e+00
0.000000000000000e+00 0.000000000000000e+00 0.000000000000000e+00
0.000000000000000e+00 0.000000000000000e+00 0.000000000000000e+00
0.000000000000000e+00 0.000000000000000e+00 0.000000000000000e+00
0.000000000000000e+00 0.000000000000000e+00 0.000000000000000e+00
0.000000000000000e+00 0.000000000000000e+00 0.000000000000000e+00
0.000000000000000e+00 0.000000000000000e+00 0.000000000000000e+00
0.000000000000000e+00 0.000000000000000e+00 0.000000000000000e+00
0.000000000000000e+00 0.000000000000000e+00 0.000000000000000e+00
0.000000000000000e+00 0.000000000000000e+00 0.000000000000000e+00
0.000000000000000e+00 0.000000000000000e+00 0.000000000000000e+00
0.000000000000000e+00 0.000000000000000e+00 0.000000000000000e+00
0.000000000000000e+00 0.000000000000000e+00 0.000000000000000e+00
0.000000000000000e+00 0.000000000000000e+00 0.000000000000000e+00
0.000000000000000e+00 0.000000000000000e+00 0.000000000000000e+00
0.000000000000000e+00 0.000000000000000e+00 0.000000000000000e+00
0.000000000000000e+00 0.000000000000000e+00 0.000000000000000e+00
0.000000000000000e+00 0.000000000000000e+00 0.000000000000000e+00
0.000000000000000e+00 0.000000000000000e+00 0.000000000000000e+00
0.000000000000000e+00 0.000000000000000e+00 0.000000000000000e+00
0.000000000000000e+00 0.000000000000000e+00 0.000000000000000e+00
0.000000000000000e+00 0.000000000000000e+00 0.000000000000000e+00
0.000000000000000e+00 0.000000000000000e+00 0.000000000000000e+00
0.000000000000000e+00 0.000000000000000e+00 0.000000000000000e+00
0.000000000000000e+00 0.000000000000000e+00 0.000000000000000e+00
0.000000000000000e+00 0.000000000000000e+00 0.000000000000000e+00
0.000000000000000e+00 0.000000000000000e+00 0.000000000000000e+00
0.000000000000000e+00 0.000000000000000e+00 0.000000000000000e+00
0.000000000000000e+00 0.000000000000000e+00 0.000000000000000e+00
0.000000000000000e+00 0.000000000000000e+00 0.000000000000000e+00
0.000000000000000e+00 0.000000000000000e+00 0.000000000000000e+00
0.000000000000000e+00 0.000000000000000e+00 0.000000000000000e+00
0.000000000000000e+00 0.000000000000000e+00 0.000000000000000e+00
0.000000000000000e+00 0.000000000000000e+00 0.000000000000000e+00
0.000000000000000e+00 0.000000000000000e+00 0.000000000000000e+00
0.000000000000000e+00 0.000000000000000e+00 0.000000000000000e+00
0.000000000000000e+00 0.000000000000000e+00 0.000000000000000e+00
0.000000000000000e+00 0.000000000000000e+00 0.000000000000000e+00
0.000000000000000e+00 0.000000000000000e+00 0.000000000000000e+00
0.000000000000000e+00 0.000000000000000e+00 0.000000000000000e+00
0.000000000000000e+00 0.000000000000000e+00 0.000000000000000e+00
0.000000000000000e+00 0.000000000000000e+00 0.000000000000000e+00
0.000000000000000e+00 0.000000000000000e+00 0.000000000000000e+00
0.000000000000000e+00 0.000000000000000e+00 0.000000000000000e+00
0.000000000000000e+00 0.000000000000000e+00 0.000000000000000e+00
0.000000000000000e+00 0.000000000000000e+00 0.000000000000000e+00
0.000000000000000e+00 0.000000000000000e+00 0.000000000000000e+00
0.000000000000000e+00 0.000000000000000e+00 0.000000000000000e+00
0.000000000000000e+00 0.000000000000000e+00 0.000000000000000e+00
0.000000000000000e+00 0.000000000000000e+00 0.000000000000000e+00
0.000000000000000e+00 0.000000000000000e+00 0.000000000000000e+00
0.000000000000000e+00 0.000000000000000e+00 0.000000000000000e+00
0.000000000000000e+00 0.000000000000000e+00 0.000000000000000e+00
0.000000000000000e+00 0.000000000000000e+00 0.000000000000000e+00
0.000000000000000e+00 0.000000000000000e+00 0.000000000000000e+00
0.000000000000000e+00 0.000000000000000e+00 0.000000000000000e+00
0.000000000000000e+00 0.000000000000000e+00 0.000000000000000e+00