<?xml version="1.0" ?> 
<!-- 
# vtk DataFile Version 3.0
-->
<VTKFile type="UnstructuredGrid" version="0.1" compressor="vtkZLibDataCompressor" byte_order="LittleEndian">
  <UnstructuredGrid>
    <FieldData>
      <DataArray type="Float64" Name="TIME" NumberOfTuples="1" format="ascii">
1.000000000000000e+00 
      </DataArray>
    </FieldData>

    <Piece NumberOfPoints="8532" NumberOfCells="316" >
      <Points>
        <DataArray type="Float64" NumberOfComponents="3" format="ascii">
-5.000000000000000e-01 -5.000000000000000e-01 -2.000000000000001e-01
-5.000000000000000e-01 -5.000000000000000e-01 -3.000000000000000e-01
-5.000000000000000e-01 -4.000000000000000e-01 -3.000000000000000e-01
-5.000000000000000e-01 -4.000000000000000e-01 -2.000000000000001e-01
-4.000000000000000e-01 -5.000000000000000e-01 -2.000000000000001e-01
-4.000000000000000e-01 -5.000000000000000e-01 -3.000000000000000e-01
-4.000000000000000e-01 -4.000000000000001e-01 -3.000000000000000e-01
-4.000000000000001e-01 -4.000000000000001e-01 -2.000000000000001e-01
-5.000000000000000e-01 -5.000000000000000e-01 -2.500000000000001e-01
-5.000000000000000e-01 -4.500000000000000e-01 -3.000000000000000e-01
-5.000000000000000e-01 -4.000000000000000e-01 -2.500000000000001e-01
-5.000000000000000e-01 -4.500000000000000e-01 -2.000000000000001e-01
-4.000000000000000e-01 -5.000000000000000e-01 -2.500000000000001e-01
-4.000000000000000e-01 -4.500000000000001e-01 -3.000000000000000e-01
-4.000000000000000e-01 -4.000000000000001e-01 -2.500000000000001e-01
-4.000000000000000e-01 -4.500000000000001e-01 -2.000000000000001e-01
-4.500000000000000e-01 -5.000000000000000e-01 -2.000000000000001e-01
-4.500000000000000e-01 -5.000000000000000e-01 -3.000000000000000e-01
-4.500000000000000e-01 -4.000000000000000e-01 -3.000000000000000e-01
-4.500000000000001e-01 -4.000000000000000e-01 -2.000000000000001e-01
-4.500000000000000e-01 -4.500000000000001e-01 -2.000000000000001e-01
-4.500000000000001e-01 -4.500000000000001e-01 -3.000000000000000e-01
-4.500000000000001e-01 -5.000000000000000e-01 -2.499999999999999e-01
-4.500000000000000e-01 -4.000000000000000e-01 -2.500000000000001e-01
-5.000000000000000e-01 -4.500000000000000e-01 -2.499999999999999e-01
-4.000000000000000e-01 -4.500000000000001e-01 -2.499999999999999e-01
-4.500000000000001e-01 -4.500000000000001e-01 -2.499999999999999e-01
-5.000000000000000e-01 -5.000000000000000e-01 -3.000000000000000e-01
-5.000000000000000e-01 -5.000000000000000e-01 -4.000000000000000e-01
-5.000000000000000e-01 -4.000000000000000e-01 -4.000000000000001e-01
-5.000000000000000e-01 -4.000000000000000e-01 -3.000000000000000e-01
-4.000000000000000e-01 -5.000000000000000e-01 -3.000000000000000e-01
-4.000000000000000e-01 -5.000000000000000e-01 -4.000000000000001e-01
-4.000000000000000e-01 -3.999999999999999e-01 -4.000000000000001e-01
-4.000000000000000e-01 -4.000000000000001e-01 -3.000000000000000e-01
-5.000000000000000e-01 -5.000000000000000e-01 -3.500000000000000e-01
-5.000000000000000e-01 -4.500000000000000e-01 -4.000000000000000e-01
-5.000000000000000e-01 -4.000000000000000e-01 -3.500000000000001e-01
-5.000000000000000e-01 -4.500000000000000e-01 -3.000000000000000e-01
-4.000000000000000e-01 -5.000000000000000e-01 -3.500000000000001e-01
-4.000000000000000e-01 -4.500000000000000e-01 -4.000000000000001e-01
-4.000000000000000e-01 -4.000000000000000e-01 -3.500000000000001e-01
-4.000000000000000e-01 -4.500000000000001e-01 -3.000000000000000e-01
-4.500000000000000e-01 -5.000000000000000e-01 -3.000000000000000e-01
-4.500000000000000e-01 -5.000000000000000e-01 -4.000000000000000e-01
-4.500000000000000e-01 -3.999999999999999e-01 -4.000000000000001e-01
-4.500000000000000e-01 -4.000000000000000e-01 -3.000000000000000e-01
-4.500000000000001e-01 -4.500000000000001e-01 -3.000000000000000e-01
-4.500000000000000e-01 -4.500000000000000e-01 -4.000000000000000e-01
-4.500000000000001e-01 -5.000000000000000e-01 -3.500000000000000e-01
-4.500000000000000e-01 -4.000000000000001e-01 -3.500000000000001e-01
-5.000000000000000e-01 -4.500000000000000e-01 -3.500000000000000e-01
-4.000000000000001e-01 -4.500000000000001e-01 -3.500000000000001e-01
-4.500000000000002e-01 -4.500000000000002e-01 -3.500000000000001e-01
-5.000000000000000e-01 -5.000000000000000e-01 -4.000000000000000e-01
-5.000000000000000e-01 -5.000000000000000e-01 -5.000000000000000e-01
-5.000000000000000e-01 -4.000000000000000e-01 -5.000000000000000e-01
-5.000000000000000e-01 -4.000000000000000e-01 -4.000000000000001e-01
-4.000000000000000e-01 -5.000000000000000e-01 -4.000000000000001e-01
-4.000000000000000e-01 -5.000000000000000e-01 -5.000000000000000e-01
-4.000000000000001e-01 -4.000000000000000e-01 -5.000000000000000e-01
-4.000000000000000e-01 -3.999999999999999e-01 -4.000000000000001e-01
-5.000000000000000e-01 -5.000000000000000e-01 -4.500000000000000e-01
-5.000000000000000e-01 -4.500000000000000e-01 -5.000000000000000e-01
-5.000000000000000e-01 -4.000000000000000e-01 -4.500000000000001e-01
-5.000000000000000e-01 -4.500000000000000e-01 -4.000000000000000e-01
-4.000000000000000e-01 -5.000000000000000e-01 -4.500000000000001e-01
-4.000000000000000e-01 -4.500000000000000e-01 -5.000000000000000e-01
-4.000000000000000e-01 -3.999999999999999e-01 -4.500000000000001e-01
-4.000000000000000e-01 -4.500000000000000e-01 -4.000000000000001e-01
-4.500000000000000e-01 -5.000000000000000e-01 -4.000000000000000e-01
-4.500000000000000e-01 -5.000000000000000e-01 -5.000000000000000e-01
-4.500000000000001e-01 -4.000000000000000e-01 -5.000000000000000e-01
-4.500000000000000e-01 -3.999999999999999e-01 -4.000000000000001e-01
-4.500000000000000e-01 -4.500000000000000e-01 -4.000000000000000e-01
-4.500000000000001e-01 -4.500000000000000e-01 -5.000000000000000e-01
-4.500000000000001e-01 -5.000000000000000e-01 -4.499999999999999e-01
-4.500000000000000e-01 -3.999999999999999e-01 -4.500000000000001e-01
-5.000000000000000e-01 -4.500000000000000e-01 -4.500000000000001e-01
-4.000000000000000e-01 -4.500000000000000e-01 -4.500000000000001e-01
-4.500000000000001e-01 -4.500000000000000e-01 -4.500000000000000e-01
-5.000000000000000e-01 -4.000000000000000e-01 -2.000000000000001e-01
-5.000000000000000e-01 -4.000000000000000e-01 -3.000000000000000e-01
-5.000000000000000e-01 -3.000000000000000e-01 -3.000000000000000e-01
-5.000000000000000e-01 -3.000000000000000e-01 -2.000000000000000e-01
-4.000000000000001e-01 -4.000000000000001e-01 -2.000000000000001e-01
-4.000000000000000e-01 -4.000000000000001e-01 -3.000000000000000e-01
-4.000000000000001e-01 -3.000000000000000e-01 -3.000000000000000e-01
-4.000000000000000e-01 -3.000000000000000e-01 -2.000000000000001e-01
-5.000000000000000e-01 -4.000000000000000e-01 -2.500000000000001e-01
-5.000000000000000e-01 -3.500000000000000e-01 -3.000000000000000e-01
-5.000000000000000e-01 -3.000000000000000e-01 -2.500000000000000e-01
-5.000000000000000e-01 -3.500000000000000e-01 -2.000000000000000e-01
-4.000000000000000e-01 -4.000000000000001e-01 -2.500000000000001e-01
-4.000000000000000e-01 -3.500000000000001e-01 -3.000000000000000e-01
-4.000000000000000e-01 -3.000000000000000e-01 -2.500000000000001e-01
-4.000000000000000e-01 -3.500000000000001e-01 -2.000000000000001e-01
-4.500000000000001e-01 -4.000000000000000e-01 -2.000000000000001e-01
-4.500000000000000e-01 -4.000000000000000e-01 -3.000000000000000e-01
-4.500000000000001e-01 -3.000000000000000e-01 -3.000000000000000e-01
-4.500000000000000e-01 -3.000000000000000e-01 -2.000000000000000e-01
-4.500000000000001e-01 -3.500000000000001e-01 -2.000000000000000e-01
-4.500000000000000e-01 -3.500000000000001e-01 -3.000000000000000e-01
-4.500000000000000e-01 -4.000000000000000e-01 -2.500000000000001e-01
-4.500000000000000e-01 -3.000000000000000e-01 -2.499999999999999e-01
-5.000000000000000e-01 -3.500000000000002e-01 -2.500000000000000e-01
-4.000000000000000e-01 -3.500000000000001e-01 -2.499999999999999e-01
-4.500000000000001e-01 -3.500000000000001e-01 -2.499999999999999e-01
-5.000000000000000e-01 -4.000000000000000e-01 -3.000000000000000e-01
-5.000000000000000e-01 -4.000000000000000e-01 -4.000000000000001e-01
-5.000000000000000e-01 -3.000000000000000e-01 -4.000000000000001e-01
-5.000000000000000e-01 -3.000000000000000e-01 -3.000000000000000e-01
-4.000000000000000e-01 -4.000000000000001e-01 -3.000000000000000e-01
-4.000000000000000e-01 -3.999999999999999e-01 -4.000000000000001e-01
-4.000000000000000e-01 -3.000000000000000e-01 -4.000000000000001e-01
-4.000000000000001e-01 -3.000000000000000e-01 -3.000000000000000e-01
-5.000000000000000e-01 -4.000000000000000e-01 -3.500000000000001e-01
-5.000000000000000e-01 -3.500000000000000e-01 -4.000000000000001e-01
-5.000000000000000e-01 -3.000000000000000e-01 -3.500000000000001e-01
-5.000000000000000e-01 -3.500000000000000e-01 -3.000000000000000e-01
-4.000000000000000e-01 -4.000000000000000e-01 -3.500000000000001e-01
-4.000000000000000e-01 -3.500000000000000e-01 -4.000000000000001e-01
-4.000000000000000e-01 -3.000000000000000e-01 -3.500000000000001e-01
-4.000000000000000e-01 -3.500000000000001e-01 -3.000000000000000e-01
-4.500000000000000e-01 -4.000000000000000e-01 -3.000000000000000e-01
-4.500000000000000e-01 -3.999999999999999e-01 -4.000000000000001e-01
-4.500000000000000e-01 -3.000000000000000e-01 -4.000000000000001e-01
-4.500000000000001e-01 -3.000000000000000e-01 -3.000000000000000e-01
-4.500000000000000e-01 -3.500000000000001e-01 -3.000000000000000e-01
-4.500000000000000e-01 -3.500000000000000e-01 -4.000000000000002e-01
-4.500000000000000e-01 -4.000000000000001e-01 -3.500000000000001e-01
-4.500000000000000e-01 -3.000000000000000e-01 -3.500000000000001e-01
-5.000000000000000e-01 -3.500000000000001e-01 -3.500000000000001e-01
-4.000000000000000e-01 -3.500000000000000e-01 -3.500000000000001e-01
-4.500000000000000e-01 -3.500000000000001e-01 -3.500000000000001e-01
-5.000000000000000e-01 -4.000000000000000e-01 -4.000000000000001e-01
-5.000000000000000e-01 -4.000000000000000e-01 -5.000000000000000e-01
[...]
  <PointData>
        <DataArray type="Float64" Name="acceleration" NumberOfComponents="3" format="ascii">
0.000000000000000e+00 0.000000000000000e+00 0.000000000000000e+00
0.000000000000000e+00 0.000000000000000e+00 0.000000000000000e+00
0.000000000000000e+00 0.000000000000000e+00 0.000000000000000e+00
0.000000000000000e+00 0.000000000000000e+00 0.000000000000000e+00
0.000000000000000e+00 0.000000000000000e+00 0.000000000000000e+00
0.000000000000000e+00 0.000000000000000e+00 0.000000000000000e+00
0.000000000000000e+00 0.000000000000000e+00 0.000000000000000e+00
0.000000000000000e+00 0.000000000000000e+00 0.000000000000000e+00
0.000000000000000e+00 0.000000000000000e+00 0.000000000000000e+00
0.000000000000000e+00 0.000000000000000e+00 0.000000000000000e+00
0.000000000000000e+00 0.000000000000000e+00 0.000000000000000e+00
0.000000000000000e+00 0.000000000000000e+00 0.000000000000000e+00
0.000000000000000e+00 0.000000000000000e+00 0.000000000000000e+00
0.000000000000000e+00 0.000000000000000e+00 0.000000000000000e+00
0.000000000000000e+00 0.000000000000000e+00 0.000000000000000e+00
0.000000000000000e+00 0.000000000000000e+00 0.000000000000000e+00
0.000000000000000e+00 0.000000000000000e+00 0.000000000000000e+00
0.000000000000000e+00 0.000000000000000e+00 0.000000000000000e+00
0.000000000000000e+00 0.000000000000000e+00 0.000000000000000e+00
0.000000000000000e+00 0.000000000000000e+00 0.000000000000000e+00
0.000000000000000e+00 0.000000000000000e+00 0.000000000000000e+00
0.000000000000000e+00 0.000000000000000e+00 0.000000000000000e+00
0.000000000000000e+00 0.000000000000000e+00 0.000000000000000e+00
0.000000000000000e+00 0.000000000000000e+00 0.000000000000000e+00
0.000000000000000e+00 0.000000000000000e+00 0.000000000000000e+00
0.000000000000000e+00 0.000000000000000e+00 0.000000000000000e+00
0.000000000000000e+00 0.000000000000000e+00 0.000000000000000e+00
0.000000000000000e+00 0.000000000000000e+00 0.000000000000000e+00
0.000000000000000e+00 0.000000000000000e+00 0.000000000000000e+00
0.000000000000000e+00 0.000000000000000e+00 0.000000000000000e+00
0.000000000000000e+00 0.000000000000000e+00 0.000000000000000e+00
0.000000000000000e+00 0.000000000000000e+00 0.000000000000000e+00
0.000000000000000e+00 0.000000000000000e+00 0.000000000000000e+00
0.000000000000000e+00 0.000000000000000e+00 0.000000000000000e+00
0.000000000000000e+00 0.000000000000000e+00 0.000000000000000e+00
0.000000000000000e+00 0.000000000000000e+00 0.000000000000000e+00
0.000000000000000e+00 0.000000000000000e+00 0.000000000000000e+00
0.000000000000000e+00 0.000000000000000e+00 0.000000000000000e+00
0.000000000000000e+00 0.000000000000000e+00 0.000000000000000e+00
0.000000000000000e+00 0.000000000000000e+00 0.000000000000000e+00
0.000000000000000e+00 0.000000000000000e+00 0.000000000000000e+00
0.000000000000000e+00 0.000000000000000e+00 0.000000000000000e+00
0.000000000000000e+00 0.000000000000000e+00 0.000000000000000e+00
0.000000000000000e+00 0.000000000000000e+00 0.000000000000000e+00
0.000000000000000e+00 0.000000000000000e+00 0.000000000000000e+00
0.000000000000000e+00 0.000000000000000e+00 0.000000000000000e+00
0.000000000000000e+00 0.000000000000000e+00 0.000000000000000e+00
0.000000000000000e+00 0.000000000000000e+00 0.000000000000000e+00
0.000000000000000e+00 0.000000000000000e+00 0.000000000000000e+00
0.000000000000000e+00 0.000000000000000e+00 0.000000000000000e+00
0.000000000000000e+00 0.000000000000000e+00 0.000000000000000e+00
0.000000000000000e+00 0.000000000000000e+00 0.000000000000000e+00
0.000000000000000e+00 0.000000000000000e+00 0.000000000000000e+00
0.000000000000000e+00 0.000000000000000e+00 0.000000000000000e+00
0.000000000000000e+00 0.000000000000000e+00 0.000000000000000e+00
0.000000000000000e+00 0.000000000000000e+00 0.000000000000000e+00
0.000000000000000e+00 0.000000000000000e+00 0.000000000000000e+00
0.000000000000000e+00 0.000000000000000e+00 0.000000000000000e+00
0.000000000000000e+00 0.000000000000000e+00 0.000000000000000e+00
0.000000000000000e+00 0.000000000000000e+00 0.000000000000000e+00
0.000000000000000e+00 0.000000000000000e+00 0.000000000000000e+00
0.000000000000000e+00 0.000000000000000e+00 0.000000000000000e+00
0.000000000000000e+00 0.000000000000000e+00 0.000000000000000e+00
0.000000000000000e+00 0.000000000000000e+00 0.000000000000000e+00
0.000000000000000e+00 0.000000000000000e+00 0.000000000000000e+00
0.000000000000000e+00 0.000000000000000e+00 0.000000000000000e+00
0.000000000000000e+00 0.000000000000000e+00 0.000000000000000e+00
0.000000000000000e+00 0.000000000000000e+00 0.000000000000000e+00
0.000000000000000e+00 0.000000000000000e+00 0.000000000000000e+00
0.000000000000000e+00 0.000000000000000e+00 0.000000000000000e+00
0.000000000000000e+00 0.000000000000000e+00 0.000000000000000e+00
0.000000000000000e+00 0.000000000000000e+00 0.000000000000000e+00
0.000000000000000e+00 0.000000000000000e+00 0.000000000000000e+00
0.000000000000000e+00 0.000000000000000e+00 0.000000000000000e+00
0.000000000000000e+00 0.000000000000000e+00 0.000000000000000e+00
0.000000000000000e+00 0.000000000000000e+00 0.000000000000000e+00
0.000000000000000e+00 0.000000000000000e+00 0.000000000000000e+00
0.000000000000000e+00 0.000000000000000e+00 0.000000000000000e+00
0.000000000000000e+00 0.000000000000000e+00 0.000000000000000e+00
0.000000000000000e+00 0.000000000000000e+00 0.000000000000000e+00
0.000000000000000e+00 0.000000000000000e+00 0.000000000000000e+00
0.000000000000000e+00 0.000000000000000e+00 0.000000000000000e+00
0.000000000000000e+00 0.000000000000000e+00 0.000000000000000e+00
0.000000000000000e+00 0.000000000000000e+00 0.000000000000000e+00
0.000000000000000e+00 0.000000000000000e+00 0.000000000000000e+00
0.000000000000000e+00 0.000000000000000e+00 0.000000000000000e+00
0.000000000000000e+00 0.000000000000000e+00 0.000000000000000e+00
0.000000000000000e+00 0.000000000000000e+00 0.000000000000000e+00
0.000000000000000e+00 0.000000000000000e+00 0.000000000000000e+00
0.000000000000000e+00 0.000000000000000e+00 0.000000000000000e+00
0.000000000000000e+00 0.000000000000000e+00 0.000000000000000e+00
0.000000000000000e+00 0.000000000000000e+00 0.000000000000000e+00
0.000000000000000e+00 0.000000000000000e+00 0.000000000000000e+00
0.000000000000000e+00 0.000000000000000e+00 0.000000000000000e+00
0.000000000000000e+00 0.000000000000000e+00 0.000000000000000e+00
0.000000000000000e+00 0.000000000000000e+00 0.000000000000000e+00
0.000000000000000e+00 0.000000000000000e+00 0.000000000000000e+00
0.000000000000000e+00 0.000000000000000e+00 0.000000000000000e+00
0.000000000000000e+00 0.000000000000000e+00 0.000000000000000e+00
0.000000000000000e+00 0.000000000000000e+00 0.000000000000000e+00
0.000000000000000e+00 0.000000000000000e+00 0.000000000000000e+00
0.000000000000000e+00 0.000000000000000e+00 0.000000000000000e+00
0.000000000000000e+00 0.000000000000000e+00 0.000000000000000e+00
0.000000000000000e+00 0.000000000000000e+00 0.000000000000000e+00
0.000000000000000e+00 0.000000000000000e+00 0.000000000000000e+00
0.000000000000000e+00 0.000000000000000e+00 0.000000000000000e+00
0.000000000000000e+00 0.000000000000000e+00 0.000000000000000e+00
0.000000000000000e+00 0.000000000000000e+00 0.000000000000000e+00
0.000000000000000e+00 0.000000000000000e+00 0.000000000000000e+00
0.000000000000000e+00 0.000000000000000e+00 0.000000000000000e+00
0.000000000000000e+00 0.000000000000000e+00 0.000000000000000e+00
0.000000000000000e+00 0.000000000000000e+00 0.000000000000000e+00
0.000000000000000e+00 0.000000000000000e+00 0.000000000000000e+00
0.000000000000000e+00 0.000000000000000e+00 0.000000000000000e+00
0.000000000000000e+00 0.000000000000000e+00 0.000000000000000e+00
0.000000000000000e+00 0.000000000000000e+00 0.000000000000000e+00
0.000000000000000e+00 0.000000000000000e+00 0.000000000000000e+00
0.000000000000000e+00 0.000000000000000e+00 0.000000000000000e+00
0.000000000000000e+00 0.000000000000000e+00 0.000000000000000e+00
0.000000000000000e+00 0.000000000000000e+00 0.000000000000000e+00
0.000000000000000e+00 0.000000000000000e+00 0.000000000000000e+00
0.000000000000000e+00 0.000000000000000e+00 0.000000000000000e+00
0.000000000000000e+00 0.000000000000000e+00 0.000000000000000e+00
0.000000000000000e+00 0.000000000000000e+00 0.000000000000000e+00
0.000000000000000e+00 0.000000000000000e+00 0.000000000000000e+00
0.000000000000000e+00 0.000000000000000e+00 0.000000000000000e+00
0.000000000000000e+00 0.000000000000000e+00 0.000000000000000e+00
0.000000000000000e+00 0.000000000000000e+00 0.000000000000000e+00
0.000000000000000e+00 0.000000000000000e+00 0.000000000000000e+00
0.000000000000000e+00 0.000000000000000e+00 0.000000000000000e+00
0.000000000000000e+00 0.000000000000000e+00 0.000000000000000e+00
0.000000000000000e+00 0.000000000000000e+00 0.000000000000000e+00
0.000000000000000e+00 0.000000000000000e+00 0.000000000000000e+00
0.000000000000000e+00 0.000000000000000e+00 0.000000000000000e+00
0.000000000000000e+00 0.000000000000000e+00 0.000000000000000e+00
0.000000000000000e+00 0.000000000000000e+00 0.000000000000000e+00
0.000000000000000e+00 0.000000000000000e+00 0.000000000000000e+00
0.000000000000000e+00 0.000000000000000e+00 0.000000000000000e+00
0.000000000000000e+00 0.000000000000000e+00 0.000000000000000e+00
0.000000000000000e+00 0.000000000000000e+00 0.000000000000000e+00
0.000000000000000e+00 0.000000000000000e+00 0.000000000000000e+00
0.000000000000000e+00 0.000000000000000e+00 0.000000000000000e+00
0.000000000000000e+00 0.000000000000000e+00 0.000000000000000e+00
0.000000000000000e+00 0.000000000000000e+00 0.000000000000000e+00
0.000000000000000e+00 0.000000000000000e+00 0.000000000000000e+00
0.000000000000000e+00 0.000000000000000e+00 0.000000000000000e+00
0.000000000000000e+00 0.000000000000000e+00 0.000000000000000e+00
0.000000000000000e+00 0.000000000000000e+00 0.000000000000000e+00
0.000000000000000e+00 0.000000000000000e+00 0.000000000000000e+00
0.000000000000000e+00 0.000000000000000e+00 0.000000000000000e+00
0.000000000000000e+00 0.000000000000000e+00 0.000000000000000e+00
0.000000000000000e+00 0.000000000000000e+00 0.000000000000000e+00
0.000000000000000e+00 0.000000000000000e+00 0.000000000000000e+00
0.000000000000000e+00 0.000000000000000e+00 0.000000000000000e+00
0.000000000000000e+00 0.000000000000000e+00 0.000000000000000e+00
0.000000000000000e+00 0.000000000000000e+00 0.000000000000000e+00
0.000000000000000e+00 0.000000000000000e+00 0.000000000000000e+00
0.000000000000000e+00 0.000000000000000e+00 0.000000000000000e+00
0.000000000000000e+00 0.000000000000000e+00 0.000000000000000e+00
0.000000000000000e+00 0.000000000000000e+00 0.000000000000000e+00
0.000000000000000e+00 0.000000000000000e+00 0.000000000000000e+00
0.000000000000000e+00 0.000000000000000e+00 0.000000000000000e+00
0.000000000000000e+00 0.000000000000000e+00 0.000000000000000e+00
0.000000000000000e+00 0.000000000000000e+00 0.000000000000000e+00
0.000000000000000e+00 0.000000000000000e+00 0.000000000000000e+00
0.000000000000000e+00 0.000000000000000e+00 0.000000000000000e+00
0.000000000000000e+00 0.000000000000000e+00 0.000000000000000e+00
0.000000000000000e+00 0.000000000000000e+00 0.000000000000000e+00
0.000000000000000e+00 0.000000000000000e+00 0.000000000000000e+00
0.000000000000000e+00 0.000000000000000e+00 0.000000000000000e+00
0.000000000000000e+00 0.000000000000000e+00 0.000000000000000e+00
0.000000000000000e+00 0.000000000000000e+00 0.000000000000000e+00
0.000000000000000e+00 0.000000000000000e+00 0.000000000000000e+00
0.000000000000000e+00 0.000000000000000e+00 0.000000000000000e+00
0.000000000000000e+00 0.000000000000000e+00 0.000000000000000e+00
0.000000000000000e+00 0.000000000000000e+00 0.000000000000000e+00
0.000000000000000e+00 0.000000000000000e+00 0.000000000000000e+00
0.000000000000000e+00 0.000000000000000e+00 0.000000000000000e+00
0.000000000000000e+00 0.000000000000000e+00 0.000000000000000e+00
0.000000000000000e+00 0.000000000000000e+00 0.000000000000000e+00
0.000000000000000e+00 0.000000000000000e+00 0.000000000000000e+00
0.000000000000000e+00 0.000000000000000e+00 0.000000000000000e+00
0.000000000000000e+00 0.000000000000000e+00 0.000000000000000e+00
0.000000000000000e+00 0.000000000000000e+00 0.000000000000000e+00
0.000000000000000e+00 0.000000000000000e+00 0.000000000000000e+00
0.000000000000000e+00 0.000000000000000e+00 0.000000000000000e+00
0.000000000000000e+00 0.000000000000000e+00 0.000000000000000e+00
0.000000000000000e+00 0.000000000000000e+00 0.000000000000000e+00
0.000000000000000e+00 0.000000000000000e+00 0.000000000000000e+00
0.000000000000000e+00 0.000000000000000e+00 0.000000000000000e+00
0.000000000000000e+00 0.000000000000000e+00 0.000000000000000e+00
0.000000000000000e+00 0.000000000000000e+00 0.000000000000000e+00
0.000000000000000e+00 0.000000000000000e+00 0.000000000000000e+00
0.000000000000000e+00 0.000000000000000e+00 0.000000000000000e+00
0.000000000000000e+00 0.000000000000000e+00 0.000000000000000e+00
0.000000000000000e+00 0.000000000000000e+00 0.000000000000000e+00
0.000000000000000e+00 0.000000000000000e+00 0.000000000000000e+00
0.000000000000000e+00 0.000000000000000e+00 0.000000000000000e+00
0.000000000000000e+00 0.000000000000000e+00 0.000000000000000e+00
0.000000000000000e+00 0.000000000000000e+00 0.000000000000000e+00
0.000000000000000e+00 0.000000000000000e+00 0.000000000000000e+00
0.000000000000000e+00 0.000000000000000e+00 0.000000000000000e+00
0.000000000000000e+00 0.000000000000000e+00 0.000000000000000e+00
0.000000000000000e+00 0.000000000000000e+00 0.000000000000000e+00
0.000000000000000e+00 0.000000000000000e+00 0.000000000000000e+00
0.000000000000000e+00 0.000000000000000e+00 0.000000000000000e+00
0.000000000000000e+00 0.000000000000000e+00 0.000000000000000e+00
0.000000000000000e+00 0.000000000000000e+00 0.000000000000000e+00
0.000000000000000e+00 0.000000000000000e+00 0.000000000000000e+00
0.000000000000000e+00 0.000000000000000e+00 0.000000000000000e+00
0.000000000000000e+00 0.000000000000000e+00 0.000000000000000e+00
0.000000000000000e+00 0.000000000000000e+00 0.000000000000000e+00
0.000000000000000e+00 0.000000000000000e+00 0.000000000000000e+00
0.000000000000000e+00 0.000000000000000e+00 0.000000000000000e+00
0.000000000000000e+00 0.000000000000000e+00 0.000000000000000e+00
0.000000000000000e+00 0.000000000000000e+00 0.000000000000000e+00
0.000000000000000e+00 0.000000000000000e+00 0.000000000000000e+00
0.000000000000000e+00 0.000000000000000e+00 0.000000000000000e+00
0.000000000000000e+00 0.000000000000000e+00 0.000000000000000e+00
0.000000000000000e+00 0.000000000000000e+00 0.000000000000000e+00
0.000000000000000e+00 0.000000000000000e+00 0.000000000000000e+00
0.000000000000000e+00 0.000000000000000e+00 0.000000000000000e+00
0.000000000000000e+00 0.000000000000000e+00 0.000000000000000e+00
0.000000000000000e+00 0.000000000000000e+00 0.000000000000000e+00
0.000000000000000e+00 0.000000000000000e+00 0.000000000000000e+00
0.000000000000000e+00 0.000000000000000e+00 0.000000000000000e+00
0.000000000000000e+00 0.000000000000000e+00 0.000000000000000e+00
0.000000000000000e+00 0.000000000000000e+00 0.000000000000000e+00
0.000000000000000e+00 0.000000000000000e+00 0.000000000000000e+00
0.000000000000000e+00 0.000000000000000e+00 0.000000000000000e+00
0.000000000000000e+00 0.000000000000000e+00 0.000000000000000e+00
0.000000000000000e+00 0.000000000000000e+00 0.000000000000000e+00
0.000000000000000e+00 0.000000000000000e+00 0.000000000000000e+00
0.000000000000000e+00 0.000000000000000e+00 0.000000000000000e+00
0.000000000000000e+00 0.000000000000000e+00 0.000000000000000e+00
0.000000000000000e+00 0.000000000000000e+00 0.000000000000000e+00
0.000000000000000e+00 0.000000000000000e+00 0.000000000000000e+00
0.000000000000000e+00 0.000000000000000e+00 0.000000000000000e+00
0.000000000000000e+00 0.000000000000000e+00 0.000000000000000e+00
0.000000000000000e+00 0.000000000000000e+00 0.000000000000000e+00
0.000000000000000e+00 0.000000000000000e+00 0.000000000000000e+00
0.000000000000000e+00 0.000000000000000e+00 0.000000000000000e+00
0.000000000000000e+00 0.000000000000000e+00 0.000000000000000e+00
0.000000000000000e+00 0.000000000000000e+00 0.000000000000000e+00
0.000000000000000e+00 0.000000000000000e+00 0.000000000000000e+00
0.000000000000000e+00 0.000000000000000e+00 0.000000000000000e+00
0.000000000000000e+00 0.000000000000000e+00 0.000000000000000e+00
0.000000000000000e+00 0.000000000000000e+00 0.000000000000000e+00
0.000000000000000e+00 0.000000000000000e+00 0.000000000000000e+00
0.000000000000000e+00 0.000000000000000e+00 0.000000000000000e+00
0.000000000000000e+00 0.000000000000000e+00 0.000000000000000e+00
0.000000000000000e+00 0.000000000000000e+00 0.000000000000000e+00
0.000000000000000e+00 0.000000000000000e+00 0.000000000000000e+00
0.000000000000000e+00 0.000000000000000e+00 0.000000000000000e+00
0.000000000000000e+00 0.000000000000000e+00 0.000000000000000e+00
0.000000000000000e+00 0.000000000000000e+00 0.000000000000000e+00
0.000000000000000e+00 0.000000000000000e+00 0.000000000000000e+00
0.000000000000000e+00 0.000000000000000e+00 0.000000000000000e+00
0.000000000000000e+00 0.000000000000000e+00 0.000000000000000e+00
0.000000000000000e+00 0.000000000000000e+00 0.000000000000000e+00
0.000000000000000e+00 0.000000000000000e+00 0.000000000000000e+00
0.000000000000000e+00 0.000000000000000e+00 0.000000000000000e+00
0.000000000000000e+00 0.000000000000000e+00 0.000000000000000e+00
0.000000000000000e+00 0.000000000000000e+00 0.000000000000000e+00
0.000000000000000e+00 0.000000000000000e+00 0.000000000000000e+00
0.000000000000000e+00 0.000000000000000e+00 0.000000000000000e+00
0.000000000000000e+00 0.000000000000000e+00 0.000000000000000e+00
0.000000000000000e+00 0.000000000000000e+00 0.000000000000000e+00
0.000000000000000e+00 0.000000000000000e+00 0.000000000000000e+00
0.000000000000000e+00 0.000000000000000e+00 0.000000000000000e+00
0.000000000000000e+00 0.000000000000000e+00 0.000000000000000e+00
0.000000000000000e+00 0.000000000000000e+00 0.000000000000000e+00
0.000000000000000e+00 0.000000000000000e+00 0.000000000000000e+00
0.000000000000000e+00 0.000000000000000e+00 0.000000000000000e+00
0.000000000000000e+00 0.000000000000000e+00 0.000000000000000e+00
0.000000000000000e+00 0.000000000000000e+00 0.000000000000000e+00
0.000000000000000e+00 0.000000000000000e+00 0.000000000000000e+00
0.000000000000000e+00 0.000000000000000e+00 0.000000000000000e+00
0.000000000000000e+00 0.000000000000000e+00 0.000000000000000e+00
0.000000000000000e+00 0.000000000000000e+00 0.000000000000000e+00
0.000000000000000e+00 0.000000000000000e+00 0.000000000000000e+00
0.000000000000000e+00 0.000000000000000e+00 0.000000000000000e+00
0.000000000000000e+00 0.000000000000000e+00 0.000000000000000e+00
0.000000000000000e+00 0.000000000000000e+00 0.000000000000000e+00
0.000000000000000e+00 0.000000000000000e+00 0.000000000000000e+00
0.000000000000000e+00 0.000000000000000e+00 0.000000000000000e+00
0.000000000000000e+00 0.000000000000000e+00 0.000000000000000e+00
0.000000000000000e+00 0.000000000000000e+00 0.000000000000000e+00
0.000000000000000e+00 0.000000000000000e+00 0.000000000000000e+00
0.000000000000000e+00 0.000000000000000e+00 0.000000000000000e+00
0.000000000000000e+00 0.000000000000000e+00 0.000000000000000e+00
0.000000000000000e+00 0.000000000000000e+00 0.000000000000000e+00
0.000000000000000e+00 0.000000000000000e+00 0.000000000000000e+00
0.000000000000000e+00 0.000000000000000e+00 0.000000000000000e+00
0.000000000000000e+00 0.000000000000000e+00 0.000000000000000e+00
0.000000000000000e+00 0.000000000000000e+00 0.000000000000000e+00
0.000000000000000e+00 0.000000000000000e+00 0.000000000000000e+00
0.000000000000000e+00 0.000000000000000e+00 0.000000000000000e+00
0.000000000000000e+00 0.000000000000000e+00 0.000000000000000e+00
0.000000000000000e+00 0.000000000000000e+00 0.000000000000000e+00
0.000000000000000e+00 0.000000000000000e+00 0.000000000000000e+00