<?xml version="1.0" ?> 
<!-- 
# vtk DataFile Version 3.0
-->
<VTKFile type="UnstructuredGrid" version="0.1" compressor="vtkZLibDataCompressor" byte_order="LittleEndian">
  <UnstructuredGrid>
    <FieldData>
      <DataArray type="Float64" Name="TIME" NumberOfTuples="1" format="ascii">
2.500000000000000e-03 
      </DataArray>
    </FieldData>

    <Piece NumberOfPoints="30" NumberOfCells="5" >
      <Points>
        <DataArray type="Float64" NumberOfComponents="3" format="ascii">
2.499372928136018e+00 2.473688763189913e+00 1.545686209450561e+00
2.819797315113112e+00 2.491733295061726e+00 1.812012774660693e+00
3.170449758916063e+00 2.517336572139488e+00 2.032803125227822e+00
3.545237100856249e+00 2.552950166516084e+00 2.206207394781315e+00
3.938066182245050e+00 2.601025650284397e+00 2.330375716950535e+00
4.342843844393842e+00 2.664014595537312e+00 2.403458225364848e+00
4.342843844393842e+00 2.664014595537312e+00 2.403458225364848e+00
4.748558314353709e+00 2.742167834741610e+00 2.454383412029516e+00
5.148464835847173e+00 2.825840312232766e+00 2.503219624392703e+00
5.542870775192774e+00 2.902639767906703e+00 2.534826779248129e+00
5.932083498709055e+00 2.960173941659345e+00 2.534064793389514e+00
6.316410372714556e+00 2.986050573386616e+00 2.485793583610578e+00
6.316410372714556e+00 2.986050573386616e+00 2.485793583610578e+00
6.700146469167347e+00 2.970003446253761e+00 2.443521578971010e+00
7.087868531047979e+00 2.919155015034145e+00 2.453161656770366e+00
7.480306431208721e+00 2.847196027035868e+00 2.488180406162161e+00
7.878190042501836e+00 2.767817229567029e+00 2.522044416299912e+00
8.282249237779585e+00 2.694709369935731e+00 2.528220276337133e+00
8.282249237779585e+00 2.694709369935731e+00 2.528220276337133e+00
8.689717770768963e+00 2.634840267425010e+00 2.513661749041768e+00
9.097263861249417e+00 2.585733312570428e+00 2.503074970998660e+00
9.504769081151890e+00 2.546912609558863e+00 2.496555092086673e+00
9.912115002407329e+00 2.517902262577193e+00 2.494197262184676e+00
1.031918319694667e+01 2.498226375812295e+00 2.496096631171531e+00
3.191831969466751e-01 2.498226375812295e+00 2.496096631171531e+00
7.252333601535901e-01 2.486068259507267e+00 2.499165735153151e+00
1.129671401579293e+00 2.478733107470365e+00 2.500630477261669e+00
1.532598214406060e+00 2.474427849236201e+00 2.501056057915283e+00
1.934114691816170e+00 2.471359414339390e+00 2.501007677532191e+00
2.334321726991899e+00 2.467734732314546e+00 2.501050536530592e+00
        </DataArray>
      </Points>

      <Cells>
        <DataArray type="Int32" Name="connectivity" format="ascii">
0 1 2 3 4 5 6 7 8 9 10 11 12 13 14 15 16 17 18 19 20 21 22 23 24 25 26 27 28 29 
        </DataArray>
        <DataArray type="Int32" Name="offsets" format="ascii">
6 12 18 24 30 
        </DataArray>
        <DataArray type="UInt8" Name="types" format="ascii">
4 4 4 4 4 
        </DataArray>
      </Cells>

  <PointData>
        <DataArray type="Float64" Name="base_vector_1" NumberOfComponents="3" format="ascii">
7.240848832447420e-01 4.090052189732525e-02 6.884970799974208e-01
8.077227260281128e-01 5.425521646716903e-02 5.870607884570513e-01
8.759928163124175e-01 7.437086938367432e-02 4.765559353907530e-01
9.278113661866461e-01 1.007553366511285e-01 3.591857888491513e-01
9.623578185962861e-01 1.327232933333850e-01 2.371749489160647e-01
9.790756502447354e-01 1.694108259048505e-01 1.127423751926706e-01
9.790756502447354e-01 1.694108259048505e-01 1.127423751926707e-01
9.732252034454313e-01 1.909750227572603e-01 1.279110787283996e-01
9.771720956636987e-01 1.847044188853113e-01 1.049712965550816e-01
9.879841420450687e-01 1.471611132228284e-01 4.723284685986429e-02
9.951594062852844e-01 8.450801402491845e-02 -5.016125643845354e-02
9.804659303301084e-01 1.476465777244117e-02 -1.961340468729933e-01
9.804659303301084e-01 1.476465777244115e-02 -1.961340468729934e-01
9.977079561479383e-01 -6.403281844972369e-02 -2.187766899119734e-02
9.883344416298807e-01 -1.350426385464394e-01 7.041673993140847e-02
9.807677459976867e-01 -1.695098074786512e-01 9.675253784355087e-02
9.839707031275723e-01 -1.671301072265795e-01 6.220275432055325e-02
9.874155276836607e-01 -1.528596285169543e-01 -4.055255428276437e-02
9.874155276836607e-01 -1.528596285169543e-01 -4.055255428276434e-02
9.911728117987889e-01 -1.286233418863363e-01 -3.213243023602848e-02
9.941351758682428e-01 -1.059943359057090e-01 -2.145816528330401e-02
9.963772610005750e-01 -8.444798200316121e-02 -1.004450579102002e-02
9.979927702237350e-01 -6.332352898547404e-02 7.491715297824191e-04
9.990706458789861e-01 -4.201230070149169e-02 9.633853471642502e-03
9.990706458789861e-01 -4.201230070149173e-02 9.633853471642508e-03
9.996117850844523e-01 -2.736069568037019e-02 5.260366162264319e-03
9.998525872166379e-01 -1.703714999853864e-02 2.130576476630464e-03
9.999392496447472e-01 -1.101725536237631e-02 3.422048801360586e-04
9.999566970251151e-01 -9.305460887021628e-03 -1.116794623250360e-04
9.999285645029365e-01 -1.193457094261204e-02 6.571967075311108e-04
        </DataArray>
        <DataArray type="Float64" Name="base_vector_2" NumberOfComponents="3" format="ascii">
-1.067252994089008e-01 9.928610368415570e-01 5.326041670874231e-02
-1.184104047115874e-01 9.903952920366964e-01 7.138726474368398e-02
-1.315726682633658e-01 9.874143370148356e-01 8.775853248323436e-02
-1.466461270750685e-01 9.838300804293700e-01 1.028264861610188e-01
-1.639494163190399e-01 9.794921265485891e-01 1.171143155979186e-01
-1.836732637512724e-01 9.741930864739896e-01 1.311943689692407e-01
-1.836732637512724e-01 9.741930864739896e-01 1.311943689692406e-01
-1.831989986886291e-01 9.805710526861577e-01 -7.013228581362578e-02
-1.646323621999760e-01 9.706417388683215e-01 -1.753590604535083e-01
-1.359840805618781e-01 9.729260368426815e-01 -1.868776515994722e-01
-8.953249136927993e-02 9.900860886072825e-01 -1.082287860762659e-01
-4.053400374171373e-03 9.984835496138681e-01 5.490146715614116e-02
-4.053400374171358e-03 9.984835496138681e-01 5.490146715614114e-02
6.759010246299824e-02 9.584666383310714e-01 2.770799185350259e-01
1.002834822630473e-01 9.250208679171417e-01 3.664418331782210e-01
1.299113801384507e-01 9.369033174204664e-01 3.245538585767356e-01
1.569279520404531e-01 9.771814166208252e-01 1.431436232575748e-01
1.429157336584480e-01 9.722785102637683e-01 -1.850664517197399e-01
1.429157336584480e-01 9.722785102637683e-01 -1.850664517197398e-01
1.260617240578979e-01 9.894092068409861e-01 -7.195737033717442e-02
1.060538580667273e-01 9.943590147990278e-01 1.651931314980528e-03
8.474959196836336e-02 9.957934491613254e-01 3.482690437846420e-02
6.327898104214853e-02 9.976162997607123e-01 2.752251823529122e-02
4.220033298287849e-02 9.989044508460563e-01 -2.022448951328372e-02
4.220033298287852e-02 9.989044508460563e-01 -2.022448951328374e-02
2.747975866517260e-02 9.993323143550380e-01 -2.407879460246040e-02
1.707608102427546e-02 9.996575398922406e-01 -1.982953336429600e-02
1.101951637101992e-02 9.999110448569609e-01 -7.514827477031540e-03
9.306127719621405e-03 9.998742231364007e-01 1.284265915787076e-02
1.189733699602219e-02 9.990790598795278e-01 4.122481634454954e-02
        </DataArray>
        <DataArray type="Float64" Name="base_vector_3" NumberOfComponents="3" format="ascii">
-6.814035458687671e-01 -1.120451196189947e-01 7.232807883851445e-01
-5.775491095255469e-01 -1.271752216339620e-01 8.063891672688817e-01
-4.640314846377316e-01 -1.395775800215387e-01 8.747530396747607e-01
-3.430174663027412e-01 -1.480767874403585e-01 9.275841109207243e-01
-2.167671974152080e-01 -1.515905717254969e-01 9.643818127114868e-01
-8.760709606421160e-02 -1.491569721217154e-01 9.849249689121897e-01
-8.760709606421169e-02 -1.491569721217153e-01 9.849249689121897e-01
-1.388194159982046e-01 4.482132658483388e-02 9.893028951868549e-01
-1.342791151768261e-01 1.540743080819146e-01 9.788923468984768e-01
-7.345518975001127e-02 1.782092410303432e-01 9.812470644593944e-01
4.051776241514235e-02 1.121959567537819e-01 9.928596971460638e-01
1.966472206956445e-01 -5.303400825275111e-02 9.790389494608096e-01
1.966472206956446e-01 -5.303400825275108e-02 9.790389494608095e-01
3.226807732895296e-03 -2.779235530999845e-01 9.605977755252898e-01
-1.146222259134282e-01 -3.551054486940939e-01 9.277725290363028e-01
-1.456628357582679e-01 -3.057427006080036e-01 9.409058078807807e-01
-8.470698468851495e-02 -1.310877807781843e-01 9.877452710469590e-01
6.771756612626703e-02 1.769418900343444e-01 9.818889442238408e-01
6.771756612626700e-02 1.769418900343444e-01 9.818889442238408e-01
4.104751975982236e-02 6.727151953302007e-02 9.968899857964697e-01
2.116202472780767e-02 -3.917964243668322e-03 9.997683823094252e-01
7.061191272582376e-03 -3.555200336105590e-02 9.993428814149964e-01
-2.490208710653311e-03 -2.741986740614113e-02 9.996209030087391e-01
-8.773621776656184e-03 2.061224562502071e-02 9.997490479571431e-01
-8.773621776656190e-03 2.061224562502073e-02 9.997490479571431e-01
-4.598041319822471e-03 2.421400044787677e-02 9.996962239592242e-01
-1.792008104852150e-03 1.986299213413335e-02 9.998011053456740e-01
-2.593816659333390e-04 7.518141880871549e-03 9.999717047315941e-01
-7.841446846380178e-06 -1.284314233586385e-02 9.999175234155327e-01
-1.148591963976282e-03 -4.121405253860044e-02 9.991496797826869e-01
        </DataArray>
        <DataArray type="Float64" Name="displacement" NumberOfComponents="3" format="ascii">
-6.270718639824757e-04 -2.631123681008729e-02 -9.543137905494390e-01
-8.020268488688842e-02 -8.266704938274305e-03 -6.879872253393071e-01
-1.295502410839373e-01 1.733657213948847e-02 -4.671968747721778e-01
-1.547628991437504e-01 5.295016651608364e-02 -2.937926052186852e-01
-1.619338177549499e-01 1.010256502843974e-01 -1.696242830494645e-01
-1.571561556061578e-01 1.640145955373122e-01 -9.654177463515179e-02
-1.571561556061578e-01 1.640145955373122e-01 -9.654177463515179e-02
-1.514416856462910e-01 2.421678347416103e-01 -4.561658797048418e-02
-1.515351641528264e-01 3.258403122327658e-01 3.219624392702958e-03
-1.571292248072256e-01 4.026397679067029e-01 3.482677924812894e-02
-1.679165012909447e-01 4.601739416593449e-01 3.406479338951440e-02
-1.835896272854445e-01 4.860505733866156e-01 -1.420641638942177e-02
-1.835896272854445e-01 4.860505733866156e-01 -1.420641638942177e-02
-1.998535308326534e-01 4.700034462537608e-01 -5.647842102898970e-02
-2.121314689520215e-01 4.191550150341450e-01 -4.683834322963421e-02
-2.196935687912784e-01 3.471960270358680e-01 -1.181959383783937e-02
-2.218099574981638e-01 2.678172295670294e-01 2.204441629991161e-02
-2.177507622204153e-01 1.947093699357305e-01 2.822027633713287e-02
-2.177507622204153e-01 1.947093699357305e-01 2.822027633713287e-02
-2.102822292310371e-01 1.348402674250102e-01 1.366174904176809e-02
-2.027361387505833e-01 8.573331257042849e-02 3.074970998659943e-03
-1.952309188481087e-01 4.691260955886278e-02 -3.444907913326745e-03
-1.878849975926700e-01 1.790226257719274e-02 -5.802737815324477e-03
-1.808168030533249e-01 -1.773624187705103e-03 -3.903368828469311e-03
-1.808168030533249e-01 -1.773624187705103e-03 -3.903368828469311e-03
-1.747666398464101e-01 -1.393174049273282e-02 -8.342648468491198e-04
-1.703285984207075e-01 -2.126689252963532e-02 6.304772616689824e-04
-1.674017855939396e-01 -2.557215076379915e-02 1.056057915282516e-03
-1.658853081838305e-01 -2.864058566061001e-02 1.007677532190776e-03
-1.656782730081008e-01 -3.226526768545357e-02 1.050536530592172e-03
        </DataArray>
  </PointData>
  <CellData>
        <DataArray type="Float64" Name="axial_strain_GPs" NumberOfComponents="3" format="ascii">
4.708282992378576e-02 3.685970294715513e-02 4.382897457334689e-02
4.382897457334689e-02 7.723600539122355e-03 -2.567858948526058e-02
-2.567858948526058e-02 1.427699270328819e-03 3.232871061068909e-02
3.232871061068909e-02 2.351284786270535e-02 1.797008373705600e-02
1.797008373705600e-02 7.358038504858611e-03 -9.717651293075225e-04
        </DataArray>
        <DataArray type="Float64" Name="cross_section_radius" format="ascii">
2.454362714131787e-03
2.454362714131787e-03
2.454362714131787e-03
2.454362714131787e-03
2.454362714131787e-03
        </DataArray>
        <DataArray type="Float64" Name="curvature_2_GPs" NumberOfComponents="3" format="ascii">
3.304566949520922e-01 3.271633169355667e-01 3.243900094132520e-01
-3.014787111721879e-02 1.604555349849334e-01 3.661912690829995e-01
-4.547403103172886e-01 -9.315557286637147e-02 2.460892161065842e-01
-2.869017286159921e-02 -2.740998857131201e-02 -2.212286648017795e-02
9.925140075696665e-03 4.248791874365224e-03 -1.905323867654926e-03
        </DataArray>
        <DataArray type="Float64" Name="curvature_3_GPs" NumberOfComponents="3" format="ascii">
-5.458419615102816e-03 1.906773818501080e-02 4.304036845032465e-02
5.347065693967836e-02 -6.816254417288529e-02 -1.598956395748038e-01
-1.181851271931195e-01 -5.834198982165217e-02 3.982659235946164e-02
5.803774499418670e-02 5.473687356949875e-02 5.350110332901661e-02
3.619824831550664e-02 1.511563484770915e-02 -5.829991276208762e-03
        </DataArray>
        <DataArray type="Float64" Name="element_owner" format="ascii">
0.000000000000000e+00
0.000000000000000e+00
0.000000000000000e+00
0.000000000000000e+00
0.000000000000000e+00
        </DataArray>
        <DataArray type="Float64" Name="shear_strain_2_GPs" NumberOfComponents="3" format="ascii">
-5.071089750407300e-03 -1.288699753993885e-03 1.271802824749337e-03
1.271802824749358e-03 2.230368552894660e-02 3.209907439363727e-04
3.209907439363901e-04 -2.265428641443124e-02 -5.792885240011171e-03
-5.792885240011174e-03 3.577612030936865e-04 4.845275582823107e-03
4.845275582823141e-03 3.013526011795325e-03 6.726796747966246e-04
        </DataArray>
        <DataArray type="Float64" Name="shear_strain_3_GPs" NumberOfComponents="3" format="ascii">
7.628343851961983e-04 -2.136088108182777e-04 -5.514762456360484e-04
-5.514762456361177e-04 3.770272553409684e-03 -1.635595823215513e-03
-1.635595823215430e-03 7.833178511426148e-03 -4.992579688226986e-04
-4.992579688227125e-04 -1.914537848921316e-04 4.403417485641485e-04
4.403417485641433e-04 -2.524029157438806e-05 7.914638605314279e-06
        </DataArray>
        <DataArray type="Float64" Name="twist_GPs" NumberOfComponents="3" format="ascii">
5.378836680538648e-02 5.048639997967133e-02 4.409082973592248e-02
-4.863258756773470e-01 -3.469758668600714e-02 4.173542544098632e-01
5.597647179951480e-01 -1.175538271366168e-01 -8.019243827227253e-01
2.769587948406940e-01 8.210268635715927e-02 -1.127099137389251e-01
-8.087898216160336e-03 3.080845831736002e-02 6.970616624161889e-02
        </DataArray>
      </CellData>

    </Piece>
  </UnstructuredGrid>
</VTKFile>
