<?xml version="1.0" ?> 
<!-- 
# vtk DataFile Version 3.0
-->
<VTKFile type="UnstructuredGrid" version="0.1" compressor="vtkZLibDataCompressor" byte_order="LittleEndian">
  <UnstructuredGrid>
    <FieldData>
      <DataArray type="Float64" Name="TIME" NumberOfTuples="1" format="ascii">
8.500000000000004e-03 
      </DataArray>
    </FieldData>

    <Piece NumberOfPoints="30" NumberOfCells="5" >
      <Points>
        <DataArray type="Float64" NumberOfComponents="3" format="ascii">
8.318291897441896e-01 3.831896107586742e+00 4.563529194120633e+00
1.152992434689062e+00 3.853329660892158e+00 4.884516424469695e+00
1.476758700324998e+00 3.887617939844330e+00 5.197523265775216e+00
1.803879336091145e+00 3.937453888429096e+00 5.499243114049874e+00
2.135105691426647e+00 4.005530450632303e+00 5.786369365306351e+00
2.471189115770650e+00 4.094540570439795e+00 6.055595415557322e+00
2.471189115770650e+00 4.094540570439795e+00 5.559541555732217e-02
2.815146744858057e+00 4.214505751383044e+00 3.037804509883781e-01
3.170198856709113e+00 4.358083822404841e+00 5.343241389121096e-01
3.537401514190972e+00 4.501922215608005e+00 7.537305970316994e-01
3.917810780170788e+00 4.622668363095351e+00 9.685039430503302e-01
4.312482717515715e+00 4.696969696969697e+00 1.185148294671184e+00
4.312482717515715e+00 4.696969696969697e+00 1.185148294671184e+00
4.716799066283400e+00 4.701849477699869e+00 1.388087496064746e+00
5.123251260042386e+00 4.643151947231009e+00 1.560941370385514e+00
5.528559901926166e+00 4.540756009880401e+00 1.709008003812694e+00
5.929445595068240e+00 4.414540569965332e+00 1.837585482525491e+00
6.322628942602103e+00 4.284384531803089e+00 1.951971892703110e+00
6.322628942602103e+00 4.284384531803089e+00 1.951971892703110e+00
6.710957891249513e+00 4.158380663997190e+00 2.056026988529644e+00
7.099417681602163e+00 4.031907746636105e+00 2.149430579528040e+00
7.487934857598457e+00 3.905773701264549e+00 2.231210834885787e+00
7.876435963176795e+00 3.780786449427240e+00 2.300395923790374e+00
8.264847542275575e+00 3.657753912668890e+00 2.356014015429292e+00
8.264847542275575e+00 3.657753912668890e+00 2.356014015429292e+00
8.652957492415947e+00 3.537002294437088e+00 2.403748709558042e+00
9.040440573100778e+00 3.418209587893132e+00 2.446293445862999e+00
9.427053621241058e+00 3.301211399152301e+00 2.478191153427955e+00
9.812553473747775e+00 3.185843334329875e+00 2.493984761336702e+00
1.019669696753192e+01 3.071940999541133e+00 2.488217198673035e+00
        </DataArray>
      </Points>

      <Cells>
        <DataArray type="Int32" Name="connectivity" format="ascii">
0 1 2 3 4 5 6 7 8 9 10 11 12 13 14 15 16 17 18 19 20 21 22 23 24 25 26 27 28 29 
        </DataArray>
        <DataArray type="Int32" Name="offsets" format="ascii">
6 12 18 24 30 
        </DataArray>
        <DataArray type="UInt8" Name="types" format="ascii">
4 4 4 4 4 
        </DataArray>
      </Cells>

  <PointData>
        <DataArray type="Float64" Name="base_vector_1" NumberOfComponents="3" format="ascii">
6.967623208849771e-01 5.145166240850740e-02 7.154543973101160e-01
7.070176323456943e-01 7.094828825431895e-02 7.036280323765326e-01
7.207858787700775e-01 9.839789469380274e-02 6.861381575786866e-01
7.373760246067458e-01 1.335499220904720e-01 6.621487873920640e-01
7.558892921696632e-01 1.759738624857022e-01 6.306065157490119e-01
7.751979712176970e-01 2.250028551732000e-01 5.902896073825751e-01
7.751979712176971e-01 2.250028551731999e-01 5.902896073825751e-01
7.960132129819659e-01 2.723686739396555e-01 5.405351701919876e-01
8.132487734167405e-01 2.915091265500864e-01 5.036356437685608e-01
8.388470300385331e-01 2.706001176151270e-01 4.723465216789595e-01
8.678146504031818e-01 1.992828763875718e-01 4.551747661330744e-01
8.740515300589136e-01 7.759009322088019e-02 4.795974356016169e-01
8.740515300589137e-01 7.759009322088009e-02 4.795974356016169e-01
9.191485081134538e-01 -4.552766337289196e-02 3.912713277261914e-01
9.260063528725608e-01 -1.581390119686479e-01 3.427889836812701e-01
9.190931199649145e-01 -2.401860509086834e-01 3.123755716794299e-01
9.151131213894107e-01 -2.855634246001177e-01 2.846427683809701e-01
9.219454134119746e-01 -2.903956189266989e-01 2.562948286579398e-01
9.219454134119746e-01 -2.903956189266990e-01 2.562948286579400e-01
9.262644777954376e-01 -2.952913420285723e-01 2.341733129485724e-01
9.309778790822120e-01 -2.990825770199388e-01 2.093556800822435e-01
9.360443402489346e-01 -3.012911074423635e-01 1.817819068666928e-01
9.414110958178288e-01 -3.013410447114599e-01 1.514553513193927e-01
9.470090627144713e-01 -2.985618904165025e-01 1.184678552502023e-01
9.470090627144714e-01 -2.985618904165024e-01 1.184678552502022e-01
9.489834256369505e-01 -2.943971056428277e-01 1.129637200851855e-01
9.519898144853772e-01 -2.913725115881222e-01 9.390129182778442e-02
9.554008424282090e-01 -2.889126991855228e-01 6.114476704350262e-02
9.579655494335698e-01 -2.865121638652707e-01 1.458718806620835e-02
9.578092840340033e-01 -2.837371337606058e-01 -4.576695689671704e-02
        </DataArray>
        <DataArray type="Float64" Name="base_vector_2" NumberOfComponents="3" format="ascii">
-3.168350254783863e-01 9.169256155343675e-01 2.426169454243284e-01
-3.268407134791872e-01 9.151018304295538e-01 2.361435748795548e-01
-3.382400992338639e-01 9.139500129328145e-01 2.242521106486495e-01
-3.513343463156288e-01 9.130588923087564e-01 2.070933033076554e-01
-3.665101035322880e-01 9.118636876323138e-01 1.848647050855019e-01
-3.842220695554909e-01 9.096471767729005e-01 1.578461752960361e-01
-3.842220695554908e-01 9.096471767729006e-01 1.578461752960360e-01
-5.264472352911664e-01 7.522362043432766e-01 3.962246854115823e-01
-5.500457746652750e-01 6.675737158120503e-01 5.017917692925715e-01
-5.051975630080097e-01 7.101683800317772e-01 4.903430374072925e-01
-3.798248799216500e-01 8.566588102451538e-01 3.490970401218861e-01
-1.164954092518969e-01 9.918369739966281e-01 5.184820764930266e-02
-1.164954092518967e-01 9.918369739966281e-01 5.184820764930266e-02
1.349679507217008e-01 9.695719075529476e-01 -2.042399773847491e-01
2.833665429487716e-01 8.911348855855163e-01 -3.543755324930754e-01
3.556704925603047e-01 8.469001473750124e-01 -3.952956375905159e-01
3.730093093433800e-01 8.676223711489721e-01 -3.287787648632584e-01
3.333984821608399e-01 9.317967212837416e-01 -1.435281237169822e-01
3.333984821608400e-01 9.317967212837416e-01 -1.435281237169823e-01
3.352104802684811e-01 9.295023524377507e-01 -1.538158338106378e-01
3.333531041100095e-01 9.302274212253945e-01 -1.534687355150022e-01
3.282130085337627e-01 9.338220836392415e-01 -1.423114090186792e-01
3.201252884835557e-01 9.397318109144761e-01 -1.200996387534929e-01
3.093833676177217e-01 9.469903285958117e-01 -8.655200394857648e-02
3.093833676177216e-01 9.469903285958117e-01 -8.655200394857646e-02
3.018178642415786e-01 9.517738702178716e-01 -5.506792891643937e-02
2.951890541933134e-01 9.549866072383577e-01 -2.939391569403189e-02
2.899961475467026e-01 9.569810305365563e-01 -9.462642403781432e-03
2.864731063098643e-01 9.580765342982613e-01 4.744869672569739e-03
2.845896399354294e-01 9.585586109776262e-01 1.319568725253162e-02
        </DataArray>
        <DataArray type="Float64" Name="base_vector_3" NumberOfComponents="3" format="ascii">
-6.435354184697921e-01 -3.957273581802530e-01 6.551809087287169e-01
-6.271373179493503e-01 -3.969319593308935e-01 6.701819186586828e-01
-6.050300424242693e-01 -3.937171931474870e-01 6.920443768893375e-01
-5.769235438375884e-01 -3.853412480977551e-01 7.201884108206288e-01
-5.424958267046829e-01 -3.708609104495393e-01 7.537641959582198e-01
-5.014394347141659e-01 -3.491643294395913e-01 7.916077086287996e-01
-5.014394347141659e-01 -3.491643294395912e-01 7.916077086287996e-01
-2.986909325915580e-01 -5.999633308224542e-01 7.421776933161032e-01
-1.899370377494722e-01 -6.851041987135225e-01 7.032468688846456e-01
-2.027586805202195e-01 -6.499511122767010e-01 7.324291563857755e-01
-3.203604113152986e-01 -4.758382267200203e-01 8.191136605220544e-01
-4.716595619988055e-01 -1.011889047632559e-01 8.759555143544150e-01
-4.716595619988055e-01 -1.011889047632558e-01 8.759555143544150e-01
-3.700671186565980e-01 2.405359597896808e-01 8.973253477625941e-01
-2.494306251784656e-01 4.252889236578689e-01 8.700078704454409e-01
-1.696064195573669e-01 4.744162743046170e-01 8.638071897824520e-01
-1.530752436029560e-01 4.070441642039448e-01 9.004904320332380e-01
-1.971347427052658e-01 2.177734022167279e-01 9.558831719961807e-01
-1.971347427052660e-01 2.177734022167280e-01 9.558831719961807e-01
-1.722441612726525e-01 2.209714916808325e-01 9.599497636709060e-01
-1.488485694919758e-01 2.126653637136636e-01 9.657212571113508e-01
-1.268747970132486e-01 1.928729755145073e-01 9.729865370081064e-01
-1.061364609566146e-01 1.615478205597500e-01 9.811408427580619e-01
-8.634678325320655e-02 1.186175161471570e-01 9.891785065825595e-01
-8.634678325320649e-02 1.186175161471570e-01 9.891785065825596e-01
-9.130407817294060e-02 8.635302055874892e-02 9.920719334551149e-01
-8.110989705673519e-02 5.570134187073424e-02 9.951474991744920e-01
-5.578050461890492e-02 2.677236340942601e-02 9.980840525035625e-01
-1.533510546477651e-02 -3.665846052210656e-04 9.998823431564893e-01
4.012620415255529e-02 -2.566375354386095e-02 9.988649856183505e-01
        </DataArray>
        <DataArray type="Float64" Name="displacement" NumberOfComponents="3" format="ascii">
-1.668170810255810e+00 8.318961075867417e-01 -3.936470805879366e+00
-1.747007565310939e+00 8.533296608921583e-01 -3.615483575530305e+00
-1.823241299675001e+00 8.876179398443296e-01 -3.302476734224784e+00
-1.896120663908854e+00 9.374538884290962e-01 -3.000756885950126e+00
-1.964894308573353e+00 1.005530450632303e+00 -2.713630634693649e+00
-2.028810884229350e+00 1.094540570439795e+00 -2.444404584442678e+00
-2.028810884229350e+00 1.094540570439795e+00 -2.444404584442678e+00
-2.084853255141943e+00 1.214505751383044e+00 -2.196219549011622e+00
-2.129801143290886e+00 1.358083822404841e+00 -1.965675861087890e+00
-2.162598485809027e+00 1.501922215608005e+00 -1.746269402968301e+00
-2.182189219829211e+00 1.622668363095351e+00 -1.531496056949670e+00
-2.187517282484285e+00 1.696969696969697e+00 -1.314851705328816e+00
-2.187517282484285e+00 1.696969696969697e+00 -1.314851705328816e+00
-2.183200933716600e+00 1.701849477699869e+00 -1.111912503935254e+00
-2.176748739957615e+00 1.643151947231009e+00 -9.390586296144858e-01
-2.171440098073833e+00 1.540756009880401e+00 -7.909919961873058e-01
-2.170554404931759e+00 1.414540569965332e+00 -6.624145174745086e-01
-2.177371057397897e+00 1.284384531803089e+00 -5.480281072968896e-01
-2.177371057397897e+00 1.284384531803089e+00 -5.480281072968896e-01
-2.189042108750487e+00 1.158380663997190e+00 -4.439730114703564e-01
-2.200582318397836e+00 1.031907746636105e+00 -3.505694204719605e-01
-2.212065142401542e+00 9.057737012645490e-01 -2.687891651142134e-01
-2.223564036823203e+00 7.807864494272398e-01 -1.996040762096256e-01
-2.235152457724425e+00 6.577539126688898e-01 -1.439859845707083e-01
-2.235152457724425e+00 6.577539126688898e-01 -1.439859845707083e-01
-2.247042507584053e+00 5.370022944370882e-01 -9.625129044195768e-02
-2.259559426899223e+00 4.182095878931325e-01 -5.370655413700121e-02
-2.272946378758942e+00 3.012113991523013e-01 -2.180884657204540e-02
-2.287446526252225e+00 1.858433343298747e-01 -6.015238663297673e-03
-2.303303032468083e+00 7.194099954113264e-02 -1.178280132696541e-02
        </DataArray>
  </PointData>
  <CellData>
        <DataArray type="Float64" Name="axial_strain_GPs" NumberOfComponents="3" format="ascii">
1.389458508644816e-01 1.196371838620840e-01 9.545015422517511e-02
9.545015422517511e-02 1.278633061018002e-01 1.506355476080237e-01
1.506355476080237e-01 1.087912476671498e-01 5.582646439665195e-02
5.582646439665218e-02 4.151242145766609e-02 2.467819799234827e-02
2.467819799234849e-02 1.302804814824476e-02 4.388559676999915e-04
        </DataArray>
        <DataArray type="Float64" Name="cross_section_radius" format="ascii">
2.454362714131787e-03
2.454362714131787e-03
2.454362714131787e-03
2.454362714131787e-03
2.454362714131787e-03
        </DataArray>
        <DataArray type="Float64" Name="curvature_2_GPs" NumberOfComponents="3" format="ascii">
5.666764498308680e-02 1.011348405144621e-01 1.458531545464115e-01
1.704204083739392e-01 3.283677968602118e-02 -1.326544268165785e-01
2.677364270250496e-01 1.558800571316260e-01 7.599544648976538e-02
5.804201033218473e-02 6.969554654580967e-02 8.126907324429183e-02
1.519514463296208e-02 8.196622999920285e-02 1.487884429609631e-01
        </DataArray>
        <DataArray type="Float64" Name="curvature_3_GPs" NumberOfComponents="3" format="ascii">
3.006799889198954e-02 5.304687448477912e-02 7.555425577264611e-02
3.610062572918821e-02 -1.092574632316647e-01 -2.758923680308504e-01
-2.858775565754146e-01 -1.545000761386332e-01 7.337998233789493e-03
7.437565293868173e-04 9.285210969369647e-03 1.918571263155935e-02
1.225570771981387e-02 9.892986416409471e-03 5.300416712596097e-03
        </DataArray>
        <DataArray type="Float64" Name="element_owner" format="ascii">
1.000000000000000e+00
1.000000000000000e+00
1.000000000000000e+00
1.000000000000000e+00
1.000000000000000e+00
        </DataArray>
        <DataArray type="Float64" Name="shear_strain_2_GPs" NumberOfComponents="3" format="ascii">
-2.065624446187306e-02 -4.947213358419633e-03 5.137535301664151e-03
5.137535301664220e-03 3.180877693546891e-02 1.871402640992962e-02
1.871402640992975e-02 -3.407113463516395e-02 -7.887368396116159e-03
-7.887368396116132e-03 -2.736881065320586e-03 1.544802756707491e-03
1.544802756707439e-03 1.468185163784823e-03 8.318106694728716e-04
        </DataArray>
        <DataArray type="Float64" Name="shear_strain_3_GPs" NumberOfComponents="3" format="ascii">
-2.506231596959285e-04 -8.513115267705373e-05 6.197379078763943e-04
6.197379078763943e-04 -2.527121191670573e-02 -3.929894240992382e-03
-3.929894240992382e-03 -6.568374130341004e-03 9.492160189063514e-04
9.492160189061849e-04 9.866205662625860e-05 1.910761420262364e-05
1.910761420270690e-05 6.513302063401727e-05 -1.420244859352895e-04
        </DataArray>
        <DataArray type="Float64" Name="twist_GPs" NumberOfComponents="3" format="ascii">
6.434442176557416e-03 -1.007918394292000e-02 -2.656403355012173e-02
7.714196159470275e-01 -1.134407688164293e-01 -9.897312561135476e-01
-8.348337658569480e-01 -1.767807606479752e-01 4.791349941658946e-01
-2.491635284121155e-02 3.063016076704548e-02 8.596740126300839e-02
7.994136958300344e-02 5.077871439380003e-02 2.200161613975272e-02
        </DataArray>
      </CellData>

    </Piece>
  </UnstructuredGrid>
</VTKFile>
