<?xml version="1.0" ?> 
<!-- 
# vtk DataFile Version 3.0
-->
<VTKFile type="UnstructuredGrid" version="0.1" compressor="vtkZLibDataCompressor" byte_order="LittleEndian">
  <UnstructuredGrid>
    <FieldData>
      <DataArray type="Float64" Name="TIME" NumberOfTuples="1" format="ascii">
8.500000000000004e-03 
      </DataArray>
    </FieldData>

    <Piece NumberOfPoints="31" NumberOfCells="6" >
      <Points>
        <DataArray type="Float64" NumberOfComponents="3" format="ascii">
9.973003112906276e-01 3.377449195307653e+00 4.436640838106947e+00
1.318632551264215e+00 3.397143904808653e+00 4.765689936940881e+00
1.646861409213006e+00 3.431253367004190e+00 5.084572256417545e+00
1.981006284820687e+00 3.481723829032029e+00 5.393344473688687e+00
2.320086577770944e+00 3.550501538029936e+00 5.692063265906057e+00
2.663121687747462e+00 3.639532741135675e+00 5.980785310221401e+00
2.663121687747462e+00 3.639532741135675e+00 5.980785310221401e+00
3.003044895831840e+00 3.754081429460323e+00 6.257820381096625e+00
3.003044895831840e+00 3.754081429460323e+00 2.578203810966248e-01
3.335026659957879e+00 3.885988643075535e+00 5.229361181862840e-01
3.661442145087571e+00 4.017066202559951e+00 7.783759964311117e-01
3.984666516182906e+00 4.129125928492208e+00 1.026383490771840e+00
4.307074938205878e+00 4.203979641450946e+00 1.269202076149200e+00
4.307074938205878e+00 4.203979641450946e+00 1.269202076149200e+00
4.642390128777733e+00 4.218214025800612e+00 1.490377926196530e+00
4.999302105200284e+00 4.171483551544592e+00 1.675238561908148e+00
5.372636981956358e+00 4.080201717719929e+00 1.828699479266256e+00
5.757220873528789e+00 3.960782023363668e+00 1.955676174253058e+00
6.147879894400402e+00 3.829637967512851e+00 2.061084142850754e+00
6.147879894400402e+00 3.829637967512851e+00 2.061084142850754e+00
6.539840512838945e+00 3.698503976573825e+00 2.152944659705082e+00
6.931868086992223e+00 3.568261070952723e+00 2.234591530593152e+00
7.324097066163157e+00 3.439042640686265e+00 2.303909048194224e+00
7.716661899654667e+00 3.310982075811171e+00 2.358781505187562e+00
8.109697036769676e+00 3.184212766364162e+00 2.397093194252427e+00
8.109697036769676e+00 3.184212766364162e+00 2.397093194252427e+00
8.502319805832578e+00 3.060452155675124e+00 2.428056936715809e+00
8.893282240592484e+00 2.940499425132567e+00 2.458060373633109e+00
9.282170848489393e+00 2.823110571861149e+00 2.480750027276207e+00
9.668572136963304e+00 2.707041592985528e+00 2.489772419916978e+00
1.005207261345422e+01 2.591048485630361e+00 2.478774073827300e+00
        </DataArray>
      </Points>

      <Cells>
        <DataArray type="Int32" Name="connectivity" format="ascii">
0 1 2 3 4 5 6 7 8 9 10 11 12 13 14 15 16 17 18 19 20 21 22 23 24 25 26 27 28 29 30 
        </DataArray>
        <DataArray type="Int32" Name="offsets" format="ascii">
6 8 13 19 25 31 
        </DataArray>
        <DataArray type="UInt8" Name="types" format="ascii">
4 4 4 4 4 4 
        </DataArray>
      </Cells>

  <PointData>
        <DataArray type="Float64" Name="base_vector_1" NumberOfComponents="3" format="ascii">
6.828107679186866e-01 4.535055152851541e-02 7.291863840544150e-01
7.027373264239597e-01 6.938786354793550e-02 7.080576067261464e-01
7.204827475432676e-01 9.805129625643608e-02 6.865060478939256e-01
7.356289294225472e-01 1.315900215069172e-01 6.644803566972058e-01
7.476196036038384e-01 1.701813538087671e-01 6.419526735850974e-01
7.557583228201332e-01 2.139116712520978e-01 6.189274225547239e-01
7.557583228201332e-01 2.139116712520976e-01 6.189274225547239e-01
7.473707783642294e-01 2.650478260398044e-01 6.092508264736451e-01
7.473707783642294e-01 2.650478260398044e-01 6.092508264736451e-01
7.554616526069378e-01 2.781125080051181e-01 5.932378311701789e-01
7.678284064525585e-01 2.545825258799963e-01 5.879007363161624e-01
7.801445136792257e-01 1.981006252240123e-01 5.934059993478832e-01
7.960026536671997e-01 1.089542904578441e-01 5.954063637093610e-01
7.960026536671996e-01 1.089542904578443e-01 5.954063637093612e-01
8.595396058352582e-01 -4.650967411859529e-02 5.089484416067614e-01
8.988110062431330e-01 -1.547953723156430e-01 4.100940962338621e-01
9.188511434504611e-01 -2.274505855635276e-01 3.224574503815791e-01
9.259005754108606e-01 -2.750472455017016e-01 2.589539287127422e-01
9.260474539736391e-01 -3.030495183864328e-01 2.249379967784281e-01
9.260474539736391e-01 -3.030495183864326e-01 2.249379967784280e-01
9.301957305728904e-01 -3.043593909464691e-01 2.051859253620021e-01
9.349842711113623e-01 -3.056285385240243e-01 1.799878029590439e-01
9.400895941497895e-01 -3.065121823355001e-01 1.492710187920383e-01
9.450772788403295e-01 -3.066975615080087e-01 1.129847015520204e-01
9.494028355759624e-01 -3.059052288140188e-01 7.110729065690045e-02
9.494028355759624e-01 -3.059052288140188e-01 7.110729065690050e-02
9.518467971351372e-01 -2.967502842124511e-01 7.698664561734354e-02
9.542633880313254e-01 -2.913085097263476e-01 6.723643672883453e-02
9.564325844496979e-01 -2.889710462184824e-01 4.162266029781419e-02
9.572545181485406e-01 -2.892469312922635e-01 -1.490684072946876e-05
9.547507643821213e-01 -2.917602111652476e-01 -5.767978062168248e-02
        </DataArray>
        <DataArray type="Float64" Name="base_vector_2" NumberOfComponents="3" format="ascii">
-3.439754053119715e-01 9.004857383623476e-01 2.660946364481678e-01
-3.381248127180762e-01 9.082233384156010e-01 2.465805721900785e-01
-3.410771960728444e-01 9.120426600450348e-01 2.276939449723325e-01
-3.527618163309013e-01 9.118541848315241e-01 2.099548678744080e-01
-3.729895830096829e-01 9.073606818359418e-01 1.938436587161872e-01
-4.014408953220159e-01 8.980619702264796e-01 1.798051867883456e-01
-4.014408953220159e-01 8.980619702264796e-01 1.798051867883458e-01
-1.618192082234410e-01 9.619854338212986e-01 -2.199967476250194e-01
-1.618192082234410e-01 9.619854338212986e-01 -2.199967476250194e-01
3.152723791288078e-02 8.889606310934752e-01 -4.568971762174448e-01
1.454039667459660e-01 8.244576254346087e-01 -5.469253242603277e-01
1.829330525655084e-01 8.348443509216817e-01 -5.192017026293547e-01
1.506703523198774e-01 9.170379305943304e-01 -3.692423036206335e-01
1.506703523198774e-01 9.170379305943303e-01 -3.692423036206339e-01
1.678276232779720e-01 9.663114144190038e-01 -1.951310821689136e-01
2.109698846961166e-01 9.728483571724806e-01 -9.517237886126836e-02
2.649862534935314e-01 9.611638134086155e-01 -7.711296423604935e-02
3.178034982411453e-01 9.377147072618678e-01 -1.403284158340000e-01
3.592753400877895e-01 8.903877841528478e-01 -2.795189149882079e-01
3.592753400877893e-01 8.903877841528478e-01 -2.795189149882079e-01
3.484446777226022e-01 9.079424318680023e-01 -2.328665862256971e-01
3.378102167405118e-01 9.219959505342563e-01 -1.892292912425600e-01
3.278067383679317e-01 9.329613947806760e-01 -1.487473634370505e-01
3.187868130359913e-01 9.412410650041487e-01 -1.115357583208718e-01
3.110215023435855e-01 9.472219321014314e-01 -7.769321994852794e-02
3.110215023435855e-01 9.472219321014315e-01 -7.769321994852796e-02
3.005809694546641e-01 9.527455553294177e-01 -4.389746691705323e-02
2.930643629741757e-01 9.559287736939874e-01 -1.770476711086654e-02
2.891824452314325e-01 9.572734990520619e-01 9.805011940023462e-04
2.892259592166455e-01 9.571844885129980e-01 1.209129709012939e-02
2.930622213552448e-01 9.559695517270093e-01 1.538670156955144e-02
        </DataArray>
        <DataArray type="Float64" Name="base_vector_3" NumberOfComponents="3" format="ascii">
-6.445544009273061e-01 -4.325144650553056e-01 6.304608328541625e-01
-6.259647442746843e-01 -4.126932177168335e-01 6.617041990010757e-01
-6.037971156039010e-01 -3.982011169753416e-01 6.905540627843700e-01
-5.782812284136157e-01 -3.888521722262146e-01 7.172062527748860e-01
-5.494940393430144e-01 -3.843629793229703e-01 7.418365054730507e-01
-5.173727525210017e-01 -3.843520450512369e-01 7.645907012341795e-01
-5.173727525210015e-01 -3.843520450512370e-01 7.645907012341795e-01
-6.444000803050731e-01 6.583065416066736e-02 7.618496318011803e-01
-6.444000803050731e-01 6.583065416066736e-02 7.618496318011803e-01
-6.544338963638567e-01 3.638714460588977e-01 6.628075482619578e-01
-6.239368755724115e-01 5.054278992886004e-01 5.960246755979568e-01
-5.982558282668623e-01 5.136059306705982e-01 6.150600880602799e-01
-5.862407528367335e-01 3.836279401218006e-01 7.135484449365187e-01
-5.862407528367337e-01 3.836279401218008e-01 7.135484449365185e-01
-4.827272054332925e-01 2.531385007795659e-01 8.383885403305783e-01
-3.842271239872505e-01 1.720594858078653e-01 9.070639726810998e-01
-2.923950438007492e-01 1.563021270508394e-01 9.434377475171011e-01
-2.042279632164206e-01 2.122266253953927e-01 9.556415638270219e-01
-1.155739719562504e-01 3.396624548535398e-01 9.334195593457012e-01
-1.155739719562503e-01 3.396624548535397e-01 9.334195593457012e-01
-1.154218757028260e-01 2.881074479362040e-01 9.506165836197731e-01
-1.081141537453955e-01 2.377281296735879e-01 9.652961546187858e-01
-9.367121890881042e-02 1.887678943274644e-01 9.775440577382244e-01
-7.213809572004164e-02 1.414279438968734e-01 9.873166826459426e-01
-4.358762301687497e-02 9.587805969185052e-02 9.944382920973351e-01
-4.358762301687502e-02 9.587805969185056e-02 9.944382920973350e-01
-6.032209864780284e-02 6.492438386206656e-02 9.960652934395695e-01
-5.911569518762958e-02 3.659961454611044e-02 9.975799731337630e-01
-4.012760611899326e-02 1.109875939092349e-02 9.991329204701150e-01
-3.483101981944020e-03 -1.157876021511153e-02 9.999268974842432e-01
5.065088672555306e-02 -3.159422972112229e-02 9.982165558245586e-01
        </DataArray>
        <DataArray type="Float64" Name="displacement" NumberOfComponents="3" format="ascii">
-1.502699688709372e+00 8.774491953076531e-01 -4.063359161893053e+00
-1.581367448735785e+00 8.971439048086531e-01 -3.734310063059119e+00
-1.653138590786993e+00 9.312533670041905e-01 -3.415427743582455e+00
-1.718993715179313e+00 9.817238290320294e-01 -3.106655526311313e+00
-1.779913422229056e+00 1.050501538029936e+00 -2.807936734093943e+00
-1.836878312252538e+00 1.139532741135675e+00 -2.519214689778598e+00
-1.836878312252538e+00 1.139532741135675e+00 -2.519214689778598e+00
-1.896955104168160e+00 1.254081429460323e+00 -2.242179618903375e+00
-1.896955104168160e+00 1.254081429460323e+00 -2.242179618903375e+00
-1.964973340042120e+00 1.385988643075535e+00 -1.977063881813716e+00
-2.038557854912428e+00 1.517066202559951e+00 -1.721624003568888e+00
-2.115333483817093e+00 1.629125928492208e+00 -1.473616509228160e+00
-2.192925061794122e+00 1.703979641450946e+00 -1.230797923850800e+00
-2.192925061794122e+00 1.703979641450946e+00 -1.230797923850800e+00
-2.257609871222267e+00 1.718214025800612e+00 -1.009622073803470e+00
-2.300697894799717e+00 1.671483551544592e+00 -8.247614380918524e-01
-2.327363018043641e+00 1.580201717719929e+00 -6.713005207337437e-01
-2.342779126471211e+00 1.460782023363668e+00 -5.443238257469423e-01
-2.352120105599598e+00 1.329637967512851e+00 -4.389158571492455e-01
-2.352120105599598e+00 1.329637967512851e+00 -4.389158571492455e-01
-2.360159487161054e+00 1.198503976573825e+00 -3.470553402949177e-01
-2.368131913007776e+00 1.068261070952723e+00 -2.654084694068479e-01
-2.375902933836843e+00 9.390426406862651e-01 -1.960909518057758e-01
-2.383338100345332e+00 8.109820758111708e-01 -1.412184948124384e-01
-2.390302963230324e+00 6.842127663641620e-01 -1.029068057475735e-01
-2.390302963230324e+00 6.842127663641620e-01 -1.029068057475735e-01
-2.397680194167423e+00 5.604521556751236e-01 -7.194306328419131e-02
-2.406717759407517e+00 4.404994251325669e-01 -4.193962636689053e-02
-2.417829151510607e+00 3.231105718611493e-01 -1.924997272379336e-02
-2.431427863036696e+00 2.070415929855285e-01 -1.022758008302205e-02
-2.447927386545783e+00 9.104848563036061e-02 -2.122592617269969e-02
        </DataArray>
  </PointData>
  <CellData>
        <DataArray type="Float64" Name="axial_strain_GPs" NumberOfComponents="3" format="ascii">
1.527143715231483e-01 1.444258329578010e-01 1.436623022557058e-01
1.436623022557055e-01 8.639397867257514e-02 1.471963743321658e-02
1.436623022557055e-01 8.639397867257514e-02 1.471963743321658e-02
1.471963743321680e-02 3.482431317201140e-02 6.124819341994470e-02
6.124819341994470e-02 4.688210557796180e-02 3.517016447401122e-02
3.517016447401122e-02 1.717217657470882e-02 -2.074364361992487e-04
        </DataArray>
        <DataArray type="Float64" Name="cross_section_radius" format="ascii">
2.454362714131787e-03
2.454362714131787e-03
2.454362714131787e-03
2.454362714131787e-03
2.454362714131787e-03
2.454362714131787e-03
        </DataArray>
        <DataArray type="Float64" Name="curvature_2_GPs" NumberOfComponents="3" format="ascii">
9.127677791181960e-02 9.413675026463389e-02 9.619134457177851e-02
2.899053705174895e-02 5.516758107798818e-02 1.191622445633823e-01
2.899053705174895e-02 5.516758107798818e-02 1.191622445633823e-01
3.753629193494563e-01 2.493568475264029e-01 1.044463904665973e-01
4.964645930709948e-02 7.639663133610020e-02 1.033007653270043e-01
-1.361103361364177e-02 6.406399142334815e-02 1.415752534280161e-01
        </DataArray>
        <DataArray type="Float64" Name="curvature_3_GPs" NumberOfComponents="3" format="ascii">
2.471582574174629e-02 5.133562524778026e-02 7.919763190483142e-02
1.252587964253277e-01 -4.037105250517832e-02 -1.865234812692379e-01
1.252587964253277e-01 -4.037105250517832e-02 -1.865234812692379e-01
-2.785348764489734e-01 -1.463439131516799e-01 -4.989399986550376e-02
1.341140829465351e-02 1.512670295490707e-02 1.516003707134106e-02
2.220543810494101e-02 7.627015437049262e-03 -9.302569213398768e-03
        </DataArray>
        <DataArray type="Float64" Name="element_owner" format="ascii">
0.000000000000000e+00
0.000000000000000e+00
0.000000000000000e+00
0.000000000000000e+00
0.000000000000000e+00
0.000000000000000e+00
        </DataArray>
        <DataArray type="Float64" Name="shear_strain_2_GPs" NumberOfComponents="3" format="ascii">
-2.121768743900743e-02 -5.206937559641217e-03 5.700171987428393e-03
5.700171987428476e-03 2.981763002711235e-02 1.420612768298932e-02
5.700171987428476e-03 2.981763002711235e-02 1.420612768298932e-02
1.420612768298912e-02 -2.997504258841966e-02 -7.996101153096041e-03
-7.996101153096208e-03 -2.762483540307253e-03 1.565043426566460e-03
1.565043426566403e-03 1.482900718208208e-03 8.054627234700575e-04
        </DataArray>
        <DataArray type="Float64" Name="shear_strain_3_GPs" NumberOfComponents="3" format="ascii">
7.625226231193771e-04 -8.421970693417435e-05 6.376292214689272e-04
6.376292214691492e-04 2.267613387273243e-02 4.911878818143423e-03
6.376292214691492e-04 2.267613387273243e-02 4.911878818143423e-03
4.911878818143145e-03 4.672961702910150e-03 -3.158751800408088e-04
-3.158751800406978e-04 -2.596411923011521e-05 -1.723376756256750e-04
-1.723376756257444e-04 3.206540226750876e-06 -1.612186160929521e-04
        </DataArray>
        <DataArray type="Float64" Name="twist_GPs" NumberOfComponents="3" format="ascii">
-4.789754060678059e-02 -1.380066047076199e-02 1.934866401699606e-02
-1.155162456675878e+00 -3.953327775407645e-01 3.662388036184720e-01
-1.155162456675878e+00 -3.953327775407645e-01 3.662388036184720e-01
3.457626546728275e-01 -8.842343654186999e-03 -3.677200685171375e-01
1.261976288203777e-01 1.067355633754511e-01 8.741064699050109e-02
8.533291679222785e-02 4.722691677302882e-02 9.764922528702789e-03
        </DataArray>
      </CellData>

    </Piece>
  </UnstructuredGrid>
</VTKFile>
