<?xml version="1.0" ?> 
<!-- 
# vtk DataFile Version 3.0
-->
<VTKFile type="UnstructuredGrid" version="0.1" compressor="vtkZLibDataCompressor" byte_order="LittleEndian">
  <UnstructuredGrid>
    <FieldData>
      <DataArray type="Float64" Name="TIME" NumberOfTuples="1" format="ascii">
2.500000000000000e-03 
      </DataArray>
    </FieldData>

    <Piece NumberOfPoints="30" NumberOfCells="5" >
      <Points>
        <DataArray type="Float64" NumberOfComponents="3" format="ascii">
2.444900390024557e+00 2.969954846141590e+00 1.573297461573098e+00
2.759372249563205e+00 2.986756416646748e+00 1.845771009251732e+00
3.103128286318258e+00 3.010477140108831e+00 2.079988864715580e+00
3.470350418336873e+00 3.044112374036042e+00 2.265223137178365e+00
3.855220563666205e+00 3.090657475936583e+00 2.390745935853809e+00
4.251920640353410e+00 3.153107803318659e+00 2.445829369955635e+00
4.251920640353410e+00 3.153107803318659e+00 2.445829369955635e+00
4.654277689854871e+00 3.232319879624717e+00 2.465158493235015e+00
5.060571127372715e+00 3.318331988347332e+00 2.486548462057574e+00
5.471661431572708e+00 3.397912127069901e+00 2.503966539558710e+00
5.888409081120615e+00 3.457828293375820e+00 2.511379988873824e+00
6.311674554682202e+00 3.484848484848485e+00 2.502756073138315e+00
6.311674554682202e+00 3.484848484848485e+00 2.502756073138315e+00
6.734617913163335e+00 3.467930546642014e+00 2.492944640010249e+00
7.150177171779033e+00 3.414801530276352e+00 2.494940289426967e+00
7.558879740658788e+00 3.340383242883636e+00 2.499927412942777e+00
7.961253029932087e+00 3.259597491596003e+00 2.499090402111990e+00
8.357824449728421e+00 3.187366083545590e+00 2.483613648488913e+00
8.357824449728421e+00 3.187366083545590e+00 2.483613648488913e+00
8.752686390647947e+00 3.129671289202638e+00 2.476006999072700e+00
9.149147416315497e+00 3.082263873288541e+00 2.492755168284922e+00
9.546559196397578e+00 3.044718384312172e+00 2.516004848813515e+00
9.944273400560686e+00 3.016609370782399e+00 2.527902733346413e+00
1.034164169847133e+01 2.997511381208092e+00 2.510595514571552e+00
3.416416984713315e-01 2.997511381208092e+00 2.510595514571552e+00
7.394786649892886e-01 2.985680012353083e+00 2.488396833681360e+00
1.138671243519136e+00 2.978512697268597e+00 2.488800302447981e+00
1.538679656544565e+00 2.974296738894587e+00 2.498722569428924e+00
1.938964126549273e+00 2.971319440171006e+00 2.505080283181700e+00
2.338984876016958e+00 2.967868104037809e+00 2.494790092263818e+00
        </DataArray>
      </Points>

      <Cells>
        <DataArray type="Int32" Name="connectivity" format="ascii">
0 1 2 3 4 5 6 7 8 9 10 11 12 13 14 15 16 17 18 19 20 21 22 23 24 25 26 27 28 29 
        </DataArray>
        <DataArray type="Int32" Name="offsets" format="ascii">
6 12 18 24 30 
        </DataArray>
        <DataArray type="UInt8" Name="types" format="ascii">
4 4 4 4 4 
        </DataArray>
      </Cells>

  <PointData>
        <DataArray type="Float64" Name="base_vector_1" NumberOfComponents="3" format="ascii">
7.184930300000044e-01 3.944524626493975e-02 6.944147452268791e-01
7.871810155689010e-01 4.926178076758079e-02 6.147514340638178e-01
8.566607715577681e-01 6.898666422855471e-02 5.112466749355601e-01
9.192323857029030e-01 9.775531192874179e-02 3.813865756219847e-01
9.653536670740394e-01 1.337680200448772e-01 2.240500262887243e-01
9.838999059477933e-01 1.740566992759444e-01 4.056156448026946e-02
9.838999059477933e-01 1.740566992759443e-01 4.056156448026951e-02
9.805721264576838e-01 1.888845565247524e-01 5.292380485853165e-02
9.822021448907580e-01 1.810686168222680e-01 4.993097810042525e-02
9.881623079253931e-01 1.499549209604360e-01 3.238479389018884e-02
9.955180013374169e-01 9.456546599862957e-02 1.132101416349410e-03
9.989893443407848e-01 1.396776497667127e-02 -4.272225924650310e-02
9.989893443407848e-01 1.396776497667124e-02 -4.272225924650311e-02
9.969476640246069e-01 -7.752184616754315e-02 -9.258431976062733e-03
9.904807639401467e-01 -1.371818735139619e-01 1.135736957850339e-02
9.855320002181417e-01 -1.691410512126288e-01 1.086192159406720e-02
9.844738136702100e-01 -1.749256501384400e-01 -1.457144883930815e-02
9.862282388596889e-01 -1.521400507341337e-01 -6.486343992058644e-02
9.862282388596889e-01 -1.521400507341337e-01 -6.486343992058648e-02
9.920976524214903e-01 -1.242175523200197e-01 1.767053353442178e-02
9.929889772080096e-01 -1.035907463656757e-01 5.693723220172536e-02
9.950628603887246e-01 -8.470383510833128e-02 5.172198945274889e-02
9.979309060351275e-01 -6.428149959204674e-02 1.339996308658407e-03
9.946354746728399e-01 -4.162740086627238e-02 -9.469652591015756e-02
9.946354746728399e-01 -4.162740086627239e-02 -9.469652591015752e-02
9.993509695357372e-01 -2.895465040143465e-02 -2.143053681345103e-02
9.996786509432638e-01 -1.735394595340821e-02 1.847797088704143e-02
9.996126883689672e-01 -1.079777553575438e-02 2.564919677583332e-02
9.999522608749205e-01 -9.761498528503710e-03 4.348765490561065e-04
9.982944563782316e-01 -1.130973581119780e-02 -5.727362604525771e-02
        </DataArray>
        <DataArray type="Float64" Name="base_vector_2" NumberOfComponents="3" format="ascii">
-1.103842095929823e-01 9.922039069740699e-01 5.785095727750521e-02
-1.252362470975572e-01 9.888044242405500e-01 8.112763410351566e-02
-1.390015745567244e-01 9.852332702853053e-01 9.996982241493693e-02
-1.520173329220278e-01 9.816910783976793e-01 1.147752459621622e-01
-1.648036874210601e-01 9.782417419507247e-01 1.260271356400415e-01
-1.779891226557855e-01 9.748141814912099e-01 1.343770210260903e-01
-1.779891226557855e-01 9.748141814912099e-01 1.343770210260903e-01
-1.937667706644648e-01 9.747008650905287e-01 1.114121276075441e-01
-1.849345108258606e-01 9.787528951970104e-01 8.855504982252405e-02
-1.518093804617861e-01 9.862371403928619e-01 6.549973216372001e-02
-9.453251767678215e-02 9.946816099781473e-01 4.089129336386573e-02
-1.344793106762301e-02 9.998322969644446e-01 1.243105372858882e-02
-1.344793106762297e-02 9.998322969644446e-01 1.243105372858881e-02
7.579688227299988e-02 9.894804589607814e-01 -1.232203472339470e-01
1.365451563660739e-01 9.687335396945266e-01 -2.071490993074253e-01
1.666791224411842e-01 9.555764670266376e-01 -2.430878150116253e-01
1.667785816923848e-01 9.580410718082308e-01 -2.331141553342758e-01
1.387894738163810e-01 9.746057448279530e-01 -1.757302595062185e-01
1.387894738163810e-01 9.746057448279530e-01 -1.757302595062186e-01
1.252349293403091e-01 9.889662791318149e-01 -7.913223877346677e-02
1.041159259145827e-01 9.945450362812892e-01 -6.328094436573197e-03
8.250458530407621e-02 9.956507439001894e-01 4.327342804541834e-02
6.402455928888995e-02 9.954215082911970e-01 7.097095630708308e-02
4.909064873832554e-02 9.957519274781194e-01 7.789869787140473e-02
4.909064873832555e-02 9.957519274781194e-01 7.789869787140470e-02
2.914479190098730e-02 9.995380843344545e-01 8.613888207843035e-03
1.785810414698687e-02 9.994628750101028e-01 -2.747816574691696e-02
1.154905118465248e-02 9.995032037293103e-01 -2.932516243056317e-02
9.759949034098866e-03 9.999464772637919e-01 3.433074800323621e-03
1.534965334239552e-02 9.973868787682304e-01 7.059604948745814e-02
        </DataArray>
        <DataArray type="Float64" Name="base_vector_3" NumberOfComponents="3" format="ascii">
-6.867190780180391e-01 -1.182179323642967e-01 7.172457238307979e-01
-6.038724460851259e-01 -1.408512959043016e-01 7.845374314213731e-01
-4.968006488973228e-01 -1.567043180054056e-01 8.535999484381778e-01
-3.631839087380150e-01 -1.634824932037553e-01 9.172627338171225e-01
-2.023166875942918e-01 -1.585850280401186e-01 9.663947158394383e-01
-1.615076754050135e-02 -1.394330556245041e-01 9.900997806822637e-01
-1.615076754050141e-02 -1.394330556245041e-01 9.900997806822637e-01
-3.054084806486304e-02 -1.195025016400184e-01 9.923640504881545e-01
-3.283554899181827e-02 -9.621292088664996e-02 9.948190290584842e-01
-2.211707935893171e-02 -6.964068200024887e-02 9.973269324605503e-01
2.740823752767659e-03 -4.081503903885055e-02 9.991629599186578e-01
4.288872863083498e-02 -1.184396421638792e-02 9.990096483358264e-01
4.288872863083498e-02 -1.184396421638791e-02 9.990096483358264e-01
1.871330632391302e-02 1.221424770566622e-01 9.923361464064937e-01
1.741483670631983e-02 2.067279919365360e-01 9.782434568206320e-01
3.073673190606829e-02 2.413812761163888e-01 9.699434688950476e-01
5.473769164213106e-02 2.270645759518213e-01 9.723401994474519e-01
8.995189177270491e-02 1.643077816506754e-01 9.822991448919955e-01
8.995189177270495e-02 1.643077816506754e-01 9.822991448919955e-01
-7.645948789767661e-03 8.071987633660209e-02 9.967075002383136e-01
-5.597110964006404e-02 1.221180067194475e-02 9.983577048383052e-01
-5.516246258835854e-02 -3.879247979879878e-02 9.977235319627615e-01
-5.895980645570317e-03 -7.073831805659628e-02 9.974774823376972e-01
9.105152787726747e-02 -8.212952222391608e-02 9.924537071574102e-01
9.105152787726743e-02 -8.212952222391605e-02 9.924537071574102e-01
2.117122559112071e-02 -9.232886067734869e-03 9.997332309280462e-01
-1.799119130384462e-02 2.779931719279912e-02 9.994516071321725e-01
-2.531980782905415e-02 2.961002834048121e-02 9.992407885755944e-01
-4.683652278848905e-04 -3.428666535381408e-03 9.999940124219757e-01
5.632554044800102e-02 -7.135477515098947e-02 9.958593924628076e-01
        </DataArray>
        <DataArray type="Float64" Name="displacement" NumberOfComponents="3" format="ascii">
-5.509960997544328e-02 -3.004515385841033e-02 -9.267025384269023e-01
-1.406277504367957e-01 -1.324358335325249e-02 -6.542289907482681e-01
-1.968717136817419e-01 1.047714010883105e-02 -4.200111352844198e-01
-2.296495816631263e-01 4.411237403604229e-02 -2.347768628216347e-01
-2.447794363337943e-01 9.065747593658324e-02 -1.092540641461905e-01
-2.480793596465904e-01 1.531078033186595e-01 -5.417063004436473e-02
-2.480793596465904e-01 1.531078033186595e-01 -5.417063004436473e-02
-2.457223101451289e-01 2.323198796247166e-01 -3.484150676498476e-02
-2.394288726272835e-01 3.183319883473321e-01 -1.345153794242604e-02
-2.283385684272909e-01 3.979121270699006e-01 3.966539558710291e-03
-2.115909188793843e-01 4.578282933758198e-01 1.137998887382441e-02
-1.883254453177985e-01 4.848484848484849e-01 2.756073138314719e-03
-1.883254453177985e-01 4.848484848484849e-01 2.756073138314719e-03
-1.653820868366651e-01 4.679305466420138e-01 -7.055359989751153e-03
-1.498228282209677e-01 4.148015302763519e-01 -5.059710573033449e-03
-1.411202593412115e-01 3.403832428836355e-01 -7.258705722312797e-05
-1.387469700679125e-01 2.595974915960033e-01 -9.095978880102606e-04
-1.421755502715794e-01 1.873660835455904e-01 -1.638635151108714e-02
-1.421755502715794e-01 1.873660835455904e-01 -1.638635151108714e-02
-1.473136093520537e-01 1.296712892026384e-01 -2.399300092730039e-02
-1.508525836845021e-01 8.226387328854123e-02 -7.244831715078170e-03
-1.534408036024217e-01 4.471838431217190e-02 1.600484881351472e-02
-1.557265994393120e-01 1.660937078239888e-02 2.790273334641258e-02
-1.583583015286685e-01 -2.488618791908426e-03 1.059551457155194e-02
-1.583583015286685e-01 -2.488618791908426e-03 1.059551457155194e-02
-1.605213350107118e-01 -1.431998764691667e-02 -1.160316631863978e-02
-1.613287564808648e-01 -2.148730273140265e-02 -1.119969755201877e-02
-1.613203434554347e-01 -2.570326110541288e-02 -1.277430571075655e-03
-1.610358734507269e-01 -2.868055982899387e-02 5.080283181699841e-03
-1.610151239830415e-01 -3.213189596219124e-02 -5.209907736182018e-03
        </DataArray>
  </PointData>
  <CellData>
        <DataArray type="Float64" Name="axial_strain_GPs" NumberOfComponents="3" format="ascii">
3.651737914807773e-02 3.268586609855162e-02 1.828328612842167e-02
1.828328612842167e-02 4.763275726145810e-02 6.815708908041351e-02
6.815708908041351e-02 3.855595783147181e-02 -8.164283718938847e-04
-8.164283718938847e-04 -1.825225026031996e-04 -2.379317406759673e-03
-2.379317406759673e-03 4.687862228842654e-04 9.782244893739023e-04
        </DataArray>
        <DataArray type="Float64" Name="cross_section_radius" format="ascii">
2.454362714131787e-03
2.454362714131787e-03
2.454362714131787e-03
2.454362714131787e-03
2.454362714131787e-03
        </DataArray>
        <DataArray type="Float64" Name="curvature_2_GPs" NumberOfComponents="3" format="ascii">
2.673544512970667e-01 3.675964696967201e-01 4.683315614598540e-01
-2.396543044860356e-02 3.775287721844126e-02 1.021241272050602e-01
-6.796797083330824e-02 1.946444159304106e-02 1.086213784270788e-01
-2.066739322092311e-01 1.399709474994684e-02 2.366792956412556e-01
-1.768035120699735e-01 -1.842352945806520e-02 1.389556956840106e-01
        </DataArray>
        <DataArray type="Float64" Name="curvature_3_GPs" NumberOfComponents="3" format="ascii">
-9.133611367087915e-03 1.299629608026111e-02 3.022486272877484e-02
3.757676697945870e-02 -8.228920310738748e-02 -2.007373400623412e-01
-2.283519777987108e-01 -7.833867580161759e-02 7.651074419193429e-02
4.419637889319698e-02 4.686890303292487e-02 3.819923324291308e-02
3.927589098835520e-02 1.583966375318959e-02 -8.489025873418998e-03
        </DataArray>
        <DataArray type="Float64" Name="element_owner" format="ascii">
1.000000000000000e+00
1.000000000000000e+00
1.000000000000000e+00
1.000000000000000e+00
1.000000000000000e+00
        </DataArray>
        <DataArray type="Float64" Name="shear_strain_2_GPs" NumberOfComponents="3" format="ascii">
-4.978008882465183e-03 -1.279482387807632e-03 1.189703779228221e-03
1.189703779228305e-03 2.402957372236115e-02 4.722318213523937e-04
4.722318213524354e-04 -2.446085984006367e-02 -5.491993017450231e-03
-5.491993017450226e-03 3.577070959694150e-04 4.667382654065409e-03
4.667382654065419e-03 2.977635194272523e-03 6.632687346534508e-04
        </DataArray>
        <DataArray type="Float64" Name="shear_strain_3_GPs" NumberOfComponents="3" format="ascii">
8.067058082336098e-04 -9.444866696795007e-05 -7.509965003178326e-04
-7.509965003178881e-04 -2.661410726995002e-03 -1.006559483874347e-03
-1.006559483874341e-03 -7.077126174686969e-03 -5.014039890497562e-04
-5.014039890497285e-04 5.482721552951125e-05 -5.486929766401055e-04
-5.486929766401472e-04 1.340208717462779e-04 -1.559684494722990e-04
        </DataArray>
        <DataArray type="Float64" Name="twist_GPs" NumberOfComponents="3" format="ascii">
6.819932143290633e-02 4.828271704567873e-02 2.613528152885067e-02
-5.612979218006584e-02 -6.126749323993421e-02 -6.672459492189682e-02
-3.261574167134058e-01 -9.324070197126667e-02 1.358254035644187e-01
2.390265124945083e-01 1.269243621898772e-01 1.918777651286324e-02
-1.706062339466679e-01 -4.243429741088038e-03 1.629389628330508e-01
        </DataArray>
      </CellData>

    </Piece>
  </UnstructuredGrid>
</VTKFile>
