<?xml version="1.0" ?> 
<!-- 
# vtk DataFile Version 3.0
-->
<VTKFile type="UnstructuredGrid" version="0.1" compressor="vtkZLibDataCompressor" byte_order="LittleEndian">
  <UnstructuredGrid>
    <FieldData>
      <DataArray type="Float64" Name="TIME" NumberOfTuples="1" format="ascii">
2.000000000000000e+00 
      </DataArray>
    </FieldData>

    <Piece NumberOfPoints="8" NumberOfCells="2" >
      <Points>
        <DataArray type="Float64" NumberOfComponents="3" format="ascii">
0.000000000000000e+00 5.000000000000000e-01 0.000000000000000e+00
5.000000000000000e-01 5.000000000000001e-01 0.000000000000000e+00
5.000000000000000e-01 1.000000000000000e+00 0.000000000000000e+00
0.000000000000000e+00 1.000000000000000e+00 0.000000000000000e+00
0.000000000000000e+00 0.000000000000000e+00 0.000000000000000e+00
5.000000000000000e-01 0.000000000000000e+00 0.000000000000000e+00
5.000000000000000e-01 5.000000000000001e-01 0.000000000000000e+00
0.000000000000000e+00 5.000000000000000e-01 0.000000000000000e+00
        </DataArray>
      </Points>

      <Cells>
        <DataArray type="Int32" Name="connectivity" format="ascii">
0 1 2 3 4 5 6 7 
        </DataArray>
        <DataArray type="Int32" Name="offsets" format="ascii">
4 8 
        </DataArray>
        <DataArray type="UInt8" Name="types" format="ascii">
9 9 
        </DataArray>
      </Cells>

  <PointData>
        <DataArray type="Float64" Name="displacement" NumberOfComponents="2" format="ascii">
0.000000000000000e+00 0.000000000000000e+00
5.093324148304225e-02 -1.124065422642003e-17
5.366659551847833e-02 -1.296704355065696e-02
0.000000000000000e+00 0.000000000000000e+00
0.000000000000000e+00 0.000000000000000e+00
5.366659551847831e-02 1.296704355065696e-02
5.093324148304225e-02 -1.124065422642003e-17
0.000000000000000e+00 0.000000000000000e+00
        </DataArray>
        <DataArray type="Float64" Name="nodal_GL_strains_xyz" NumberOfComponents="6" format="ascii">
1.069963346611149e-01 -5.853848090920429e-05 -3.134273402560978e-02 -1.019150042136374e-17 0.000000000000000e+00 0.000000000000000e+00
1.117890748477004e-01 -2.561319743203801e-02 -2.428047399555507e-02 7.697835424647081e-18 0.000000000000000e+00 0.000000000000000e+00
1.121741181370315e-01 -2.561319743203801e-02 -2.436368586720055e-02 -3.381378815112496e-03 0.000000000000000e+00 0.000000000000000e+00
1.133711479420246e-01 -5.853848090920516e-05 -3.288616011809407e-02 -1.296704355065696e-02 0.000000000000000e+00 0.000000000000000e+00
1.133711479420246e-01 -5.853848090920342e-05 -3.288616011809407e-02 1.296704355065696e-02 0.000000000000000e+00 0.000000000000000e+00
1.121741181370317e-01 -2.561319743203801e-02 -2.436368586720067e-02 3.381378815112501e-03 0.000000000000000e+00 0.000000000000000e+00
1.117890748477004e-01 -2.561319743203801e-02 -2.428047399555507e-02 7.697835424647081e-18 0.000000000000000e+00 0.000000000000000e+00
1.069963346611149e-01 -5.853848090920429e-05 -3.134273402560978e-02 -1.019150042136374e-17 0.000000000000000e+00 0.000000000000000e+00
        </DataArray>
        <DataArray type="Float64" Name="nodal_cauchy_stresses_xyz" NumberOfComponents="6" format="ascii">
1.037953134541365e+00 2.349394059052188e-01 9.811840984529491e-17 -7.632783294297951e-17 0.000000000000000e+00 0.000000000000000e+00
1.036009124012386e+00 -1.009725548652311e-02 -6.760717219065567e-16 3.122502256758253e-17 0.000000000000000e+00 0.000000000000000e+00
1.038220037976687e+00 -8.163366659954058e-03 3.089973484485273e-16 -3.508867785548039e-02 0.000000000000000e+00 0.000000000000000e+00
1.091198672481847e+00 2.482090854471300e-01 1.021326886812706e-15 -1.072561990469933e-01 0.000000000000000e+00 0.000000000000000e+00
1.091198672481847e+00 2.482090854471301e-01 1.021326886812706e-15 1.072561990469933e-01 0.000000000000000e+00 0.000000000000000e+00
1.038220037976689e+00 -8.163366659954043e-03 -4.409863026946186e-16 3.508867785548039e-02 0.000000000000000e+00 0.000000000000000e+00
1.036009124012386e+00 -1.009725548652311e-02 -6.760717219065567e-16 3.122502256758253e-17 0.000000000000000e+00 0.000000000000000e+00
1.037953134541365e+00 2.349394059052188e-01 9.811840984529491e-17 -7.632783294297951e-17 0.000000000000000e+00 0.000000000000000e+00
        </DataArray>
  </PointData>
  <CellData>
        <DataArray type="Float64" Name="element_GL_strains_xyz" NumberOfComponents="6" format="ascii">
1.101837413015698e-01 -1.284996658883852e-02 -2.799077095897437e-02 -4.889818455101095e-03 0.000000000000000e+00 0.000000000000000e+00
1.101837413015698e-01 -1.284996658883852e-02 -2.799077095897437e-02 4.889818455101099e-03 0.000000000000000e+00 0.000000000000000e+00
        </DataArray>
        <DataArray type="Float64" Name="element_cauchy_stresses_xyz" NumberOfComponents="6" format="ascii">
1.042598817540305e+00 1.147783363102557e-01 -3.020054632615095e-16 -4.392842303140780e-02 0.000000000000000e+00 0.000000000000000e+00
1.042598817540305e+00 1.147783363102557e-01 -3.020054632615095e-16 4.392842303140781e-02 0.000000000000000e+00 0.000000000000000e+00
        </DataArray>
      </CellData>

    </Piece>
  </UnstructuredGrid>
</VTKFile>
