<?xml version="1.0" ?> 
<!-- 
# vtk DataFile Version 3.0
-->
<VTKFile type="UnstructuredGrid" version="0.1" compressor="vtkZLibDataCompressor" byte_order="LittleEndian">
  <UnstructuredGrid>
    <FieldData>
      <DataArray type="Float64" Name="TIME" NumberOfTuples="1" format="ascii">
1.000000000000000e+00 
      </DataArray>
    </FieldData>

    <Piece NumberOfPoints="8" NumberOfCells="2" >
      <Points>
        <DataArray type="Float64" NumberOfComponents="3" format="ascii">
0.000000000000000e+00 5.000000000000000e-01 0.000000000000000e+00
5.000000000000000e-01 5.000000000000001e-01 0.000000000000000e+00
5.000000000000000e-01 1.000000000000000e+00 0.000000000000000e+00
0.000000000000000e+00 1.000000000000000e+00 0.000000000000000e+00
0.000000000000000e+00 0.000000000000000e+00 0.000000000000000e+00
5.000000000000000e-01 0.000000000000000e+00 0.000000000000000e+00
5.000000000000000e-01 5.000000000000001e-01 0.000000000000000e+00
0.000000000000000e+00 5.000000000000000e-01 0.000000000000000e+00
        </DataArray>
      </Points>

      <Cells>
        <DataArray type="Int32" Name="connectivity" format="ascii">
0 1 2 3 4 5 6 7 
        </DataArray>
        <DataArray type="Int32" Name="offsets" format="ascii">
4 8 
        </DataArray>
        <DataArray type="UInt8" Name="types" format="ascii">
9 9 
        </DataArray>
      </Cells>

  <PointData>
        <DataArray type="Float64" Name="displacement" NumberOfComponents="2" format="ascii">
0.000000000000000e+00 0.000000000000000e+00
2.446124872467932e-02 -3.113013138894356e-18
2.589476274698941e-02 -6.445372251108536e-03
0.000000000000000e+00 0.000000000000000e+00
0.000000000000000e+00 0.000000000000000e+00
2.589476274698940e-02 6.445372251108533e-03
2.446124872467932e-02 -3.113013138894356e-18
0.000000000000000e+00 0.000000000000000e+00
        </DataArray>
        <DataArray type="Float64" Name="nodal_GL_strains_xyz" NumberOfComponents="6" format="ascii">
5.010467023239752e-02 -1.453259530249712e-05 -1.567820680346542e-02 -4.336808689942018e-18 0.000000000000000e+00 0.000000000000000e+00
5.240645479929833e-02 -1.281108556765458e-02 -1.214252244438466e-02 7.264154555652880e-18 0.000000000000000e+00 0.000000000000000e+00
5.262303713498899e-02 -1.281108556765458e-02 -1.220169186524525e-02 -1.747531807280444e-03 0.000000000000000e+00 0.000000000000000e+00
5.319915602103273e-02 -1.453259530249766e-05 -1.655869376641688e-02 -6.445372251108538e-03 0.000000000000000e+00 0.000000000000000e+00
5.319915602103273e-02 -1.453259530249658e-05 -1.655869376641688e-02 6.445372251108533e-03 0.000000000000000e+00 0.000000000000000e+00
5.262303713498899e-02 -1.281108556765458e-02 -1.220169186524526e-02 1.747531807280450e-03 0.000000000000000e+00 0.000000000000000e+00
5.240645479929833e-02 -1.281108556765458e-02 -1.214252244438466e-02 7.264154555652880e-18 0.000000000000000e+00 0.000000000000000e+00
5.010467023239752e-02 -1.453259530249712e-05 -1.567820680346542e-02 -4.336808689942018e-18 0.000000000000000e+00 0.000000000000000e+00
        </DataArray>
        <DataArray type="Float64" Name="nodal_cauchy_stresses_xyz" NumberOfComponents="6" format="ascii">
5.099195917129449e-01 1.214713068081476e-01 -2.572802627405846e-11 -3.295974604355933e-17 0.000000000000000e+00 0.000000000000000e+00
5.039326083143282e-01 -5.209888369124947e-03 -2.563939207658026e-12 5.767955557622884e-17 0.000000000000000e+00 0.000000000000000e+00
5.057290130371378e-01 -4.416743272549710e-03 -1.488522112895030e-12 -1.600400794844106e-02 0.000000000000000e+00 0.000000000000000e+00
5.390962244800668e-01 1.287030316875311e-01 -4.141900501240477e-11 -5.242140705416318e-02 0.000000000000000e+00 0.000000000000000e+00
5.390962244800668e-01 1.287030316875311e-01 -4.141900501240477e-11 5.242140705416312e-02 0.000000000000000e+00 0.000000000000000e+00
5.057290130371379e-01 -4.416743272549708e-03 -1.488522112895030e-12 1.600400794844110e-02 0.000000000000000e+00 0.000000000000000e+00
5.039326083143282e-01 -5.209888369124947e-03 -2.563939207658026e-12 5.767955557622884e-17 0.000000000000000e+00 0.000000000000000e+00
5.099195917129449e-01 1.214713068081476e-01 -2.572802627405846e-11 -3.295974604355933e-17 0.000000000000000e+00 0.000000000000000e+00
        </DataArray>
  </PointData>
  <CellData>
        <DataArray type="Float64" Name="element_GL_strains_xyz" NumberOfComponents="6" format="ascii">
5.165191312671513e-02 -6.416307060503529e-03 -1.401956651135603e-02 -2.449064678395426e-03 0.000000000000000e+00 0.000000000000000e+00
5.165191312671513e-02 -6.416307060503529e-03 -1.401956651135603e-02 2.449064678395425e-03 0.000000000000000e+00 0.000000000000000e+00
        </DataArray>
        <DataArray type="Float64" Name="element_cauchy_stresses_xyz" NumberOfComponents="6" format="ascii">
5.104080671090671e-01 5.922892721490788e-02 -1.633313981832203e-11 -2.079107561442057e-02 0.000000000000000e+00 0.000000000000000e+00
5.104080671090669e-01 5.922892721490788e-02 -1.633313981832203e-11 2.079107561442056e-02 0.000000000000000e+00 0.000000000000000e+00
        </DataArray>
      </CellData>

    </Piece>
  </UnstructuredGrid>
</VTKFile>
