<?xml version="1.0" ?> 
<!-- 
# vtk DataFile Version 3.0
-->
<VTKFile type="UnstructuredGrid" version="0.1" compressor="vtkZLibDataCompressor" byte_order="LittleEndian">
  <UnstructuredGrid>
    <FieldData>
      <DataArray type="Float64" Name="TIME" NumberOfTuples="1" format="ascii">
3.000000000000000e+00 
      </DataArray>
    </FieldData>

    <Piece NumberOfPoints="8" NumberOfCells="2" >
      <Points>
        <DataArray type="Float64" NumberOfComponents="3" format="ascii">
0.000000000000000e+00 5.000000000000000e-01 0.000000000000000e+00
5.000000000000000e-01 5.000000000000001e-01 0.000000000000000e+00
5.000000000000000e-01 1.000000000000000e+00 0.000000000000000e+00
0.000000000000000e+00 1.000000000000000e+00 0.000000000000000e+00
0.000000000000000e+00 0.000000000000000e+00 0.000000000000000e+00
5.000000000000000e-01 0.000000000000000e+00 0.000000000000000e+00
5.000000000000000e-01 5.000000000000001e-01 0.000000000000000e+00
0.000000000000000e+00 5.000000000000000e-01 0.000000000000000e+00
        </DataArray>
      </Points>

      <Cells>
        <DataArray type="Int32" Name="connectivity" format="ascii">
0 1 2 3 4 5 6 7 
        </DataArray>
        <DataArray type="Int32" Name="offsets" format="ascii">
4 8 
        </DataArray>
        <DataArray type="UInt8" Name="types" format="ascii">
9 9 
        </DataArray>
      </Cells>

  <PointData>
        <DataArray type="Float64" Name="displacement" NumberOfComponents="2" format="ascii">
0.000000000000000e+00 0.000000000000000e+00
7.949676956689916e-02 -7.608817703592408e-18
8.339461938481027e-02 -1.953342425893683e-02
0.000000000000000e+00 0.000000000000000e+00
0.000000000000000e+00 0.000000000000000e+00
8.339461938481027e-02 1.953342425893684e-02
7.949676956689916e-02 -7.608817703592408e-18
0.000000000000000e+00 0.000000000000000e+00
        </DataArray>
        <DataArray type="Float64" Name="nodal_GL_strains_xyz" NumberOfComponents="6" format="ascii">
1.715007625781162e-01 -1.322492988275348e-04 -4.691055316276632e-02 -5.637851296924623e-18 0.000000000000000e+00 0.000000000000000e+00
1.789550087385285e-01 -3.834183707363068e-02 -3.636054115453775e-02 4.336808689942018e-18 0.000000000000000e+00 0.000000000000000e+00
1.794775548809649e-01 -3.834183707363067e-02 -3.644590414966971e-02 -4.906420521254770e-03 0.000000000000000e+00 0.000000000000000e+00
1.813294238820271e-01 -1.322492988275366e-04 -4.893006841281564e-02 -1.953342425893683e-02 0.000000000000000e+00 0.000000000000000e+00
1.813294238820271e-01 -1.322492988275331e-04 -4.893006841281564e-02 1.953342425893684e-02 0.000000000000000e+00 0.000000000000000e+00
1.794775548809649e-01 -3.834183707363068e-02 -3.644590414966970e-02 4.906420521254767e-03 0.000000000000000e+00 0.000000000000000e+00
1.789550087385285e-01 -3.834183707363068e-02 -3.636054115453775e-02 4.336808689942018e-18 0.000000000000000e+00 0.000000000000000e+00
1.715007625781162e-01 -1.322492988275348e-04 -4.691055316276632e-02 -5.637851296924623e-18 0.000000000000000e+00 0.000000000000000e+00
        </DataArray>
        <DataArray type="Float64" Name="nodal_cauchy_stresses_xyz" NumberOfComponents="6" format="ascii">
1.584698561157835e+00 3.398884470414443e-01 -1.492967631072960e-14 -4.510281037539698e-17 0.000000000000000e+00 0.000000000000000e+00
1.597941898787323e+00 -1.457037520752572e-02 8.529792725738928e-16 1.821459649775647e-17 0.000000000000000e+00 0.000000000000000e+00
1.599546929875979e+00 -1.107369750629707e-02 3.688267724465913e-15 -5.717715545069422e-02 0.000000000000000e+00 0.000000000000000e+00
1.657630574095489e+00 3.584403546315925e-01 -2.863321201926789e-14 -1.643650262315275e-01 0.000000000000000e+00 0.000000000000000e+00
1.657630574095489e+00 3.584403546315926e-01 -2.863321201926789e-14 1.643650262315275e-01 0.000000000000000e+00 0.000000000000000e+00
1.599546929875979e+00 -1.107369750629708e-02 3.739169993023219e-15 5.717715545069418e-02 0.000000000000000e+00 0.000000000000000e+00
1.597941898787323e+00 -1.457037520752572e-02 8.529792725738928e-16 1.821459649775647e-17 0.000000000000000e+00 0.000000000000000e+00
1.584698561157835e+00 3.398884470414443e-01 -1.492967631072960e-14 -4.510281037539698e-17 0.000000000000000e+00 0.000000000000000e+00
        </DataArray>
  </PointData>
  <CellData>
        <DataArray type="Float64" Name="element_GL_strains_xyz" NumberOfComponents="6" format="ascii">
1.764150932300717e-01 -1.926892566128177e-02 -4.185598397891543e-02 -7.309546803490696e-03 0.000000000000000e+00 0.000000000000000e+00
1.764150932300717e-01 -1.926892566128177e-02 -4.185598397891543e-02 7.309546803490695e-03 0.000000000000000e+00 0.000000000000000e+00
        </DataArray>
        <DataArray type="Float64" Name="element_cauchy_stresses_xyz" NumberOfComponents="6" format="ascii">
1.597976333576301e+00 1.665368571361760e-01 -8.452571125735961e-15 -6.930969337578692e-02 0.000000000000000e+00 0.000000000000000e+00
1.597976333576301e+00 1.665368571361760e-01 -8.452571125735963e-15 6.930969337578691e-02 0.000000000000000e+00 0.000000000000000e+00
        </DataArray>
      </CellData>

    </Piece>
  </UnstructuredGrid>
</VTKFile>
