<?xml version="1.0" ?> 
<!-- 
# vtk DataFile Version 3.0
-->
<VTKFile type="UnstructuredGrid" version="0.1" compressor="vtkZLibDataCompressor" byte_order="LittleEndian">
  <UnstructuredGrid>
    <FieldData>
      <DataArray type="Float64" Name="TIME" NumberOfTuples="1" format="ascii">
2.000000000000000e+00 
      </DataArray>
    </FieldData>

    <Piece NumberOfPoints="8" NumberOfCells="2" >
      <Points>
        <DataArray type="Float64" NumberOfComponents="3" format="ascii">
5.000000000000000e-01 5.000000000000001e-01 0.000000000000000e+00
1.000000000000000e+00 5.000000000000000e-01 0.000000000000000e+00
1.000000000000000e+00 1.000000000000000e+00 0.000000000000000e+00
5.000000000000000e-01 1.000000000000000e+00 0.000000000000000e+00
5.000000000000000e-01 0.000000000000000e+00 0.000000000000000e+00
1.000000000000000e+00 0.000000000000000e+00 0.000000000000000e+00
1.000000000000000e+00 5.000000000000000e-01 0.000000000000000e+00
5.000000000000000e-01 5.000000000000001e-01 0.000000000000000e+00
        </DataArray>
      </Points>

      <Cells>
        <DataArray type="Int32" Name="connectivity" format="ascii">
0 1 2 3 4 5 6 7 
        </DataArray>
        <DataArray type="Int32" Name="offsets" format="ascii">
4 8 
        </DataArray>
        <DataArray type="UInt8" Name="types" format="ascii">
9 9 
        </DataArray>
      </Cells>

  <PointData>
        <DataArray type="Float64" Name="displacement" NumberOfComponents="2" format="ascii">
5.093324148304225e-02 -1.124065422642003e-17
1.061737114533676e-01 -1.289724025325328e-17
1.063777152726511e-01 -1.315208903842587e-02
5.366659551847833e-02 -1.296704355065696e-02
5.366659551847831e-02 1.296704355065696e-02
1.063777152726511e-01 1.315208903842583e-02
1.061737114533676e-01 -1.289724025325328e-17
5.093324148304225e-02 -1.124065422642003e-17
        </DataArray>
        <DataArray type="Float64" Name="nodal_GL_strains_xyz" NumberOfComponents="6" format="ascii">
1.117890748477004e-01 -2.561319743203801e-02 -2.428047399555507e-02 7.697835424647081e-18 0.000000000000000e+00 0.000000000000000e+00
1.165818150342861e-01 -2.596028390103523e-02 -2.537980088981145e-02 7.670730370334944e-18 0.000000000000000e+00 0.000000000000000e+00
1.109770883320383e-01 -2.596028390103522e-02 -2.393295802924373e-02 4.533234047425505e-05 0.000000000000000e+00 0.000000000000000e+00
1.121741181370315e-01 -2.561319743203801e-02 -2.436368586720055e-02 -3.381378815112496e-03 0.000000000000000e+00 0.000000000000000e+00
1.121741181370317e-01 -2.561319743203801e-02 -2.436368586720067e-02 3.381378815112501e-03 0.000000000000000e+00 0.000000000000000e+00
1.109770883320383e-01 -2.596028390103523e-02 -2.393295802924367e-02 -4.533234047426497e-05 0.000000000000000e+00 0.000000000000000e+00
1.165818150342861e-01 -2.596028390103523e-02 -2.537980088981145e-02 7.670730370334944e-18 0.000000000000000e+00 0.000000000000000e+00
1.117890748477004e-01 -2.561319743203801e-02 -2.428047399555507e-02 7.697835424647081e-18 0.000000000000000e+00 0.000000000000000e+00
        </DataArray>
        <DataArray type="Float64" Name="nodal_cauchy_stresses_xyz" NumberOfComponents="6" format="ascii">
1.036009124012386e+00 -1.009725548652311e-02 -6.760717219065567e-16 3.122502256758253e-17 0.000000000000000e+00 0.000000000000000e+00
1.078057381360472e+00 -4.386931717540178e-03 4.558794469962362e-16 4.315124646492308e-17 0.000000000000000e+00 0.000000000000000e+00
1.027630833765980e+00 -1.542050651937965e-02 -1.902322771976591e-15 -4.585214378264365e-05 0.000000000000000e+00 0.000000000000000e+00
1.038220037976687e+00 -8.163366659954058e-03 3.089973484485273e-16 -3.508867785548039e-02 0.000000000000000e+00 0.000000000000000e+00
1.038220037976689e+00 -8.163366659954043e-03 -4.409863026946186e-16 3.508867785548039e-02 0.000000000000000e+00 0.000000000000000e+00
1.027630833765979e+00 -1.542050651937965e-02 -1.500407744655859e-15 4.585214378250444e-05 0.000000000000000e+00 0.000000000000000e+00
1.078057381360472e+00 -4.386931717540178e-03 4.558794469962362e-16 4.315124646492308e-17 0.000000000000000e+00 0.000000000000000e+00
1.036009124012386e+00 -1.009725548652311e-02 -6.760717219065567e-16 3.122502256758253e-17 0.000000000000000e+00 0.000000000000000e+00
        </DataArray>
  </PointData>
  <CellData>
        <DataArray type="Float64" Name="element_GL_strains_xyz" NumberOfComponents="6" format="ascii">
1.137794516831622e-01 -2.577264203417171e-02 -2.471672223809322e-02 1.537119022293689e-03 0.000000000000000e+00 0.000000000000000e+00
1.137794516831623e-01 -2.577264203417171e-02 -2.471672223809324e-02 -1.537119022293688e-03 0.000000000000000e+00 0.000000000000000e+00
        </DataArray>
        <DataArray type="Float64" Name="element_cauchy_stresses_xyz" NumberOfComponents="6" format="ascii">
1.053225768991648e+00 -8.073384104637080e-03 -5.900808861891942e-20 1.009775134387839e-02 0.000000000000000e+00 0.000000000000000e+00
1.053225768991649e+00 -8.073384104637078e-03 -2.010165217489584e-16 -1.009775134387842e-02 0.000000000000000e+00 0.000000000000000e+00
        </DataArray>
      </CellData>

    </Piece>
  </UnstructuredGrid>
</VTKFile>
