<?xml version="1.0" ?> 
<!-- 
# vtk DataFile Version 3.0
-->
<VTKFile type="UnstructuredGrid" version="0.1" compressor="vtkZLibDataCompressor" byte_order="LittleEndian">
  <UnstructuredGrid>
    <FieldData>
      <DataArray type="Float64" Name="TIME" NumberOfTuples="1" format="ascii">
3.000000000000000e+00 
      </DataArray>
    </FieldData>

    <Piece NumberOfPoints="8" NumberOfCells="2" >
      <Points>
        <DataArray type="Float64" NumberOfComponents="3" format="ascii">
5.000000000000000e-01 5.000000000000001e-01 0.000000000000000e+00
1.000000000000000e+00 5.000000000000000e-01 0.000000000000000e+00
1.000000000000000e+00 1.000000000000000e+00 0.000000000000000e+00
5.000000000000000e-01 1.000000000000000e+00 0.000000000000000e+00
5.000000000000000e-01 0.000000000000000e+00 0.000000000000000e+00
1.000000000000000e+00 0.000000000000000e+00 0.000000000000000e+00
1.000000000000000e+00 5.000000000000000e-01 0.000000000000000e+00
5.000000000000000e-01 5.000000000000001e-01 0.000000000000000e+00
        </DataArray>
      </Points>

      <Cells>
        <DataArray type="Int32" Name="connectivity" format="ascii">
0 1 2 3 4 5 6 7 
        </DataArray>
        <DataArray type="Int32" Name="offsets" format="ascii">
4 8 
        </DataArray>
        <DataArray type="UInt8" Name="types" format="ascii">
9 9 
        </DataArray>
      </Cells>

  <PointData>
        <DataArray type="Float64" Name="displacement" NumberOfComponents="2" format="ascii">
7.949676956689916e-02 -7.608817703592408e-18
1.653354736047759e-01 -6.868624413000831e-18
1.654729516044698e-01 -1.966683954835405e-02
8.339461938481027e-02 -1.953342425893683e-02
8.339461938481027e-02 1.953342425893684e-02
1.654729516044698e-01 1.966683954835401e-02
1.653354736047759e-01 -6.868624413000831e-18
7.949676956689916e-02 -7.608817703592408e-18
        </DataArray>
        <DataArray type="Float64" Name="nodal_GL_strains_xyz" NumberOfComponents="6" format="ascii">
1.789550087385285e-01 -3.834183707363068e-02 -3.636054115453775e-02 4.336808689942018e-18 0.000000000000000e+00 0.000000000000000e+00
1.864092548989412e-01 -3.856479153928277e-02 -3.792274957845654e-02 1.723881454251952e-17 0.000000000000000e+00 0.000000000000000e+00
1.776256858799025e-01 -3.856479153928276e-02 -3.593481923504865e-02 3.187835432076950e-05 0.000000000000000e+00 0.000000000000000e+00
1.794775548809649e-01 -3.834183707363067e-02 -3.644590414966971e-02 -4.906420521254770e-03 0.000000000000000e+00 0.000000000000000e+00
1.794775548809649e-01 -3.834183707363068e-02 -3.644590414966970e-02 4.906420521254767e-03 0.000000000000000e+00 0.000000000000000e+00
1.776256858799027e-01 -3.856479153928277e-02 -3.593481923504873e-02 -3.187835432077112e-05 0.000000000000000e+00 0.000000000000000e+00
1.864092548989412e-01 -3.856479153928277e-02 -3.792274957845654e-02 1.723881454251952e-17 0.000000000000000e+00 0.000000000000000e+00
1.789550087385285e-01 -3.834183707363068e-02 -3.636054115453775e-02 4.336808689942018e-18 0.000000000000000e+00 0.000000000000000e+00
        </DataArray>
        <DataArray type="Float64" Name="nodal_cauchy_stresses_xyz" NumberOfComponents="6" format="ascii">
1.597941898787323e+00 -1.457037520752572e-02 8.529792725738928e-16 1.821459649775647e-17 0.000000000000000e+00 0.000000000000000e+00
1.658562056470645e+00 -4.701627195648990e-03 5.270888385257457e-17 9.107298248878237e-17 0.000000000000000e+00 0.000000000000000e+00
1.585718101712132e+00 -1.948210270731560e-02 -1.146843222313323e-15 -1.734280187166461e-04 0.000000000000000e+00 0.000000000000000e+00
1.599546929875979e+00 -1.107369750629707e-02 3.688267724465913e-15 -5.717715545069422e-02 0.000000000000000e+00 0.000000000000000e+00
1.599546929875979e+00 -1.107369750629708e-02 3.739169993023219e-15 5.717715545069418e-02 0.000000000000000e+00 0.000000000000000e+00
1.585718101712134e+00 -1.948210270731561e-02 -1.526782927266057e-15 1.734280187165177e-04 0.000000000000000e+00 0.000000000000000e+00
1.658562056470645e+00 -4.701627195648990e-03 5.270888385257457e-17 9.107298248878237e-17 0.000000000000000e+00 0.000000000000000e+00
1.597941898787323e+00 -1.457037520752572e-02 8.529792725738928e-16 1.821459649775647e-17 0.000000000000000e+00 0.000000000000000e+00
        </DataArray>
  </PointData>
  <CellData>
        <DataArray type="Float64" Name="element_GL_strains_xyz" NumberOfComponents="6" format="ascii">
1.820174703894219e-01 -3.842143183140406e-02 -3.697178627046013e-02 2.292371365094361e-03 0.000000000000000e+00 0.000000000000000e+00
1.820174703894218e-01 -3.842143183140406e-02 -3.697178627046011e-02 -2.292371365094350e-03 0.000000000000000e+00 0.000000000000000e+00
        </DataArray>
        <DataArray type="Float64" Name="element_cauchy_stresses_xyz" NumberOfComponents="6" format="ascii">
1.622420404114376e+00 -1.082262555056934e-02 -5.708128650766326e-16 1.378503668392220e-02 0.000000000000000e+00 0.000000000000000e+00
1.622420404114375e+00 -1.082262555056934e-02 -3.808430126002913e-16 -1.378503668392220e-02 0.000000000000000e+00 0.000000000000000e+00
        </DataArray>
      </CellData>

    </Piece>
  </UnstructuredGrid>
</VTKFile>
