<?xml version="1.0" ?> 
<!-- 
# vtk DataFile Version 3.0
-->
<VTKFile type="UnstructuredGrid" version="0.1" compressor="vtkZLibDataCompressor" byte_order="LittleEndian">
  <UnstructuredGrid>
    <FieldData>
      <DataArray type="Float64" Name="TIME" NumberOfTuples="1" format="ascii">
1.000000000000000e+00 
      </DataArray>
    </FieldData>

    <Piece NumberOfPoints="8" NumberOfCells="2" >
      <Points>
        <DataArray type="Float64" NumberOfComponents="3" format="ascii">
5.000000000000000e-01 5.000000000000001e-01 0.000000000000000e+00
1.000000000000000e+00 5.000000000000000e-01 0.000000000000000e+00
1.000000000000000e+00 1.000000000000000e+00 0.000000000000000e+00
5.000000000000000e-01 1.000000000000000e+00 0.000000000000000e+00
5.000000000000000e-01 0.000000000000000e+00 0.000000000000000e+00
1.000000000000000e+00 0.000000000000000e+00 0.000000000000000e+00
1.000000000000000e+00 5.000000000000000e-01 0.000000000000000e+00
5.000000000000000e-01 5.000000000000001e-01 0.000000000000000e+00
        </DataArray>
      </Points>

      <Cells>
        <DataArray type="Int32" Name="connectivity" format="ascii">
0 1 2 3 4 5 6 7 
        </DataArray>
        <DataArray type="Int32" Name="offsets" format="ascii">
4 8 
        </DataArray>
        <DataArray type="UInt8" Name="types" format="ascii">
9 9 
        </DataArray>
      </Cells>

  <PointData>
        <DataArray type="Float64" Name="displacement" NumberOfComponents="2" format="ascii">
2.446124872467932e-02 -3.113013138894356e-18
5.110571135834348e-02 8.288106630562703e-18
5.127434680434406e-02 -6.594099501332567e-03
2.589476274698941e-02 -6.445372251108536e-03
2.589476274698940e-02 6.445372251108533e-03
5.127434680434409e-02 6.594099501332565e-03
5.110571135834348e-02 8.288106630562703e-18
2.446124872467932e-02 -3.113013138894356e-18
        </DataArray>
        <DataArray type="Float64" Name="nodal_GL_strains_xyz" NumberOfComponents="6" format="ascii">
5.240645479929833e-02 -1.281108556765458e-02 -1.214252244438466e-02 7.264154555652880e-18 0.000000000000000e+00 0.000000000000000e+00
5.470823936619914e-02 -1.310171850957348e-02 -1.271631957561653e-02 -7.453889935837843e-18 0.000000000000000e+00 0.000000000000000e+00
5.204691824894525e-02 -1.310171850957348e-02 -1.193455756507649e-02 3.042943530325915e-05 0.000000000000000e+00 0.000000000000000e+00
5.262303713498899e-02 -1.281108556765458e-02 -1.220169186524525e-02 -1.747531807280444e-03 0.000000000000000e+00 0.000000000000000e+00
5.262303713498899e-02 -1.281108556765458e-02 -1.220169186524526e-02 1.747531807280450e-03 0.000000000000000e+00 0.000000000000000e+00
5.204691824894528e-02 -1.310171850957348e-02 -1.193455756507650e-02 -3.042943530329005e-05 0.000000000000000e+00 0.000000000000000e+00
5.470823936619914e-02 -1.310171850957348e-02 -1.271631957561653e-02 -7.453889935837843e-18 0.000000000000000e+00 0.000000000000000e+00
5.240645479929833e-02 -1.281108556765458e-02 -1.214252244438466e-02 7.264154555652880e-18 0.000000000000000e+00 0.000000000000000e+00
        </DataArray>
        <DataArray type="Float64" Name="nodal_cauchy_stresses_xyz" NumberOfComponents="6" format="ascii">
5.039326083143282e-01 -5.209888369124947e-03 -2.563939207658026e-12 5.767955557622884e-17 0.000000000000000e+00 0.000000000000000e+00
5.256817431872842e-01 -2.999388918803476e-03 -5.850818042933878e-12 -4.521123059264553e-17 0.000000000000000e+00 0.000000000000000e+00
4.996375531615304e-01 -9.108674055747163e-03 -3.452133560581253e-12 7.881780971877566e-05 0.000000000000000e+00 0.000000000000000e+00
5.057290130371378e-01 -4.416743272549710e-03 -1.488522112895030e-12 -1.600400794844106e-02 0.000000000000000e+00 0.000000000000000e+00
5.057290130371379e-01 -4.416743272549708e-03 -1.488522112895030e-12 1.600400794844110e-02 0.000000000000000e+00 0.000000000000000e+00
4.996375531615306e-01 -9.108674055747164e-03 -3.452133560581256e-12 -7.881780971899944e-05 0.000000000000000e+00 0.000000000000000e+00
5.256817431872842e-01 -2.999388918803476e-03 -5.850818042933878e-12 -4.521123059264553e-17 0.000000000000000e+00 0.000000000000000e+00
5.039326083143282e-01 -5.209888369124947e-03 -2.563939207658026e-12 5.767955557622884e-17 0.000000000000000e+00 0.000000000000000e+00
        </DataArray>
  </PointData>
  <CellData>
        <DataArray type="Float64" Name="element_GL_strains_xyz" NumberOfComponents="6" format="ascii">
5.337757880757221e-02 -1.295290405958904e-02 -1.237448507110276e-02 7.693559208050672e-04 0.000000000000000e+00 0.000000000000000e+00
5.337757880757221e-02 -1.295290405958904e-02 -1.237448507110276e-02 -7.693559208050713e-04 0.000000000000000e+00 0.000000000000000e+00
        </DataArray>
        <DataArray type="Float64" Name="element_cauchy_stresses_xyz" NumberOfComponents="6" format="ascii">
5.130065217021229e-01 -4.525674155463198e-03 -4.805586564449095e-12 5.558288947380335e-03 0.000000000000000e+00 0.000000000000000e+00
5.130065217021229e-01 -4.525674155463198e-03 -4.805586564449095e-12 -5.558288947380353e-03 0.000000000000000e+00 0.000000000000000e+00
        </DataArray>
      </CellData>

    </Piece>
  </UnstructuredGrid>
</VTKFile>
