<?xml version="1.0" ?> 
<!-- 
# vtk DataFile Version 3.0
-->
<VTKFile type="UnstructuredGrid" version="0.1" compressor="vtkZLibDataCompressor" byte_order="LittleEndian">
  <UnstructuredGrid>
    <FieldData>
      <DataArray type="Float64" Name="TIME" NumberOfTuples="1" format="ascii">
9.999999999999999e-01 
      </DataArray>
    </FieldData>

    <Piece NumberOfPoints="18" NumberOfCells="3" >
      <Points>
        <DataArray type="Float64" NumberOfComponents="3" format="ascii">
1.510132161860876e+01 1.012758628790228e+00 3.591112269495797e+00
1.782813151326169e+01 1.394943591277130e+00 5.102425112258318e+00
2.043922290269031e+01 1.823094083781209e+00 6.794995496379194e+00
2.292253248459872e+01 2.290992572010348e+00 8.660615809681385e+00
2.526599695669098e+01 2.792421521672432e+00 1.069107843998785e+01
2.745755301667122e+01 3.321163398475345e+00 1.287817577512155e+01
3.651474899486634e+01 6.412739695990708e+00 2.528666504111327e+01
3.796280659630034e+01 7.118969901409722e+00 2.798370003504502e+01
3.931926592437392e+01 7.867123222270302e+00 3.071682056771522e+01
4.058258042466164e+01 8.656000710790998e+00 3.348293777609427e+01
4.175120354273812e+01 9.484403419190365e+00 3.627896279715259e+01
4.282358872417792e+01 1.035113239968695e+01 3.910180676786055e+01
4.282358872417792e+01 1.035113239968695e+01 3.910180676786055e+01
4.381491263904550e+01 1.126959121117538e+01 4.193793920730916e+01
4.474087842694323e+01 1.225336952941673e+01 4.477426069256149e+01
4.560072923775258e+01 1.330154758192924e+01 4.760832894754610e+01
4.639370822135499e+01 1.441320559623117e+01 5.043770169619153e+01
4.711905852763194e+01 1.558742379984076e+01 5.325993666242634e+01
        </DataArray>
      </Points>

      <Cells>
        <DataArray type="Int32" Name="connectivity" format="ascii">
0 1 2 3 4 5 6 7 8 9 10 11 12 13 14 15 16 17 
        </DataArray>
        <DataArray type="Int32" Name="offsets" format="ascii">
6 12 18 
        </DataArray>
        <DataArray type="UInt8" Name="types" format="ascii">
4 4 4 
        </DataArray>
      </Cells>

  <PointData>
        <DataArray type="Float64" Name="base_vector_1" NumberOfComponents="3" format="ascii">
8.851420612086222e-01 1.136823147484922e-01 4.512204148670320e-01
8.504461867915598e-01 1.292391968628628e-01 5.099397154232425e-01
8.115883140706674e-01 1.429159899211991e-01 5.664798569135318e-01
7.687717590297130e-01 1.546411328615916e-01 6.205450044482225e-01
7.222205506594819e-01 1.643532762378453e-01 6.718522730444553e-01
6.721782587712546e-01 1.720016032180859e-01 7.201332077648220e-01
4.753797114988990e-01 2.180163666130447e-01 8.523397173569177e-01
4.465020781808042e-01 2.315376830120067e-01 8.643067716532452e-01
4.170801021063822e-01 2.447001298310297e-01 8.753091081941323e-01
3.871481722498709e-01 2.574883225478976e-01 8.853338672360017e-01
3.567412736293435e-01 2.698873140758212e-01 8.943693316467495e-01
3.258949464155446e-01 2.818826122338827e-01 9.024049406009547e-01
3.258949464155448e-01 2.818826122338827e-01 9.024049406009546e-01
3.052277650110442e-01 3.028045463158046e-01 9.028540403613659e-01
2.842923812243351e-01 3.234603636668632e-01 9.025249221568886e-01
2.631069064788936e-01 3.438321947194828e-01 9.014178707111874e-01
2.416896685545494e-01 3.639024155856584e-01 8.995338437462567e-01
2.200591957319249e-01 3.836536633035698e-01 8.968744711538899e-01
        </DataArray>
        <DataArray type="Float64" Name="base_vector_2" NumberOfComponents="3" format="ascii">
-1.863693993037389e-01 9.751343301502008e-01 1.199144910579316e-01
-2.201193896284088e-01 9.678373314203954e-01 1.218127834780260e-01
-2.537114029269397e-01 9.596333476257668e-01 1.213851809299974e-01
-2.869696757631907e-01 9.505653044572813e-01 1.186339207579575e-01
-3.197201909306951e-01 9.406806486223511e-01 1.135733983759963e-01
-3.517915879626041e-01 9.300310995895051e-01 1.062300919470813e-01
-4.589334723006567e-01 8.880029285357531e-01 2.882476216707611e-02
-4.730031324966081e-01 8.810212832672830e-01 8.338769601455742e-03
-4.863508322357890e-01 8.736742128109958e-01 -1.249951409624755e-02
-4.989609704687898e-01 8.659703045648286e-01 -3.366573273733209e-02
-5.108188082223432e-01 8.579185630056235e-01 -5.513514683639706e-02
-5.219104858265210e-01 8.495283991645209e-01 -7.688266252733031e-02
-5.219104858265210e-01 8.495283991645209e-01 -7.688266252733023e-02
-5.310894722414592e-01 8.410878474684267e-01 -1.025436751594999e-01
-5.396754014782404e-01 8.320536125295170e-01 -1.282078270460907e-01
-5.476608457580419e-01 8.224335099606526e-01 -1.538529158559810e-01
-5.550388967879707e-01 8.122358622150205e-01 -1.794567557497197e-01
-5.618031717375049e-01 8.014694913862910e-01 -2.049971965727327e-01
        </DataArray>
        <DataArray type="Float64" Name="base_vector_3" NumberOfComponents="3" format="ascii">
-4.263683600861059e-01 -1.902350374561531e-01 8.843193156555729e-01
-4.777957070561770e-01 -2.158428361176017e-01 8.515416210705136e-01
-5.262650781581234e-01 -2.422371935715237e-01 8.150866270291867e-01
-5.715228671809468e-01 -2.692800066646607e-01 7.751450769371823e-01
-6.133322718692981e-01 -2.968297793303755e-01 7.319259569016021e-01
-6.514745329435324e-01 -3.247423629382901e-01 6.856554022533929e-01
-7.505958952041279e-01 -4.048699331893795e-01 5.221935841256014e-01
-7.595419217058527e-01 -4.125430883865364e-01 5.028958832560466e-01
-7.677936287899799e-01 -4.204940146182394e-01 4.834022416784501e-01
-7.753413717017995e-01 -4.287134186882513e-01 4.637354439378172e-01
-7.821763284935305e-01 -4.371916935982488e-01 4.439184769674225e-01
-7.882905103355835e-01 -4.459189297766680e-01 4.239745032212394e-01
-7.882905103355834e-01 -4.459189297766680e-01 4.239745032212396e-01
-7.904302524199409e-01 -4.481970990216341e-01 4.175396705559130e-01
-7.924192722398270e-01 -4.506219912666058e-01 4.111101044365387e-01
-7.942558490730135e-01 -4.531915087114771e-01 4.046913671492411e-01
-7.959383940773209e-01 -4.559034284393405e-01 3.982890116120085e-01
-7.974654516651476e-01 -4.587554043395579e-01 3.919085765708004e-01
        </DataArray>
        <DataArray type="Float64" Name="displacement" NumberOfComponents="3" format="ascii">
-5.421248854143332e-01 -2.184073116959988e-01 3.591112269495797e+00
-9.099841120115109e-01 -3.763944584576904e-01 5.102425112258318e+00
-1.375066911093754e+00 -5.853719412732383e-01 6.794995496379194e+00
-1.946422250418319e+00 -8.508336167392709e-01 8.660615809681385e+00
-2.633099097742491e+00 -1.178273341452414e+00 1.069107843998785e+01
-3.444146420823522e+00 -1.573184972009297e+00 1.287817577512155e+01
-8.884300979088323e+00 -4.486607885172503e+00 2.528666504111327e+01
-1.021252624955147e+01 -5.250417234608928e+00 2.798370003504502e+01
-1.158479905675464e+01 -6.058798728297439e+00 3.071682056771522e+01
-1.300002278132435e+01 -6.911331575032310e+00 3.348293777609427e+01
-1.445710080388709e+01 -7.807594983607839e+00 3.627896279715259e+01
-1.595493650506938e+01 -8.747168162818298e+00 3.910180676786055e+01
-1.595493650506938e+01 -8.747168162818298e+00 3.910180676786055e+01
-1.747574996161679e+01 -9.714956605739841e+00 4.193793920730916e+01
-1.900142539730870e+01 -1.069541732737915e+01 4.477426069256149e+01
-2.053036241332224e+01 -1.168745681942630e+01 4.760832894754610e+01
-2.206096061083456e+01 -1.268998157357138e+01 5.043770169619153e+01
-2.359161959102282e+01 -1.370189808150448e+01 5.325993666242634e+01
        </DataArray>
  </PointData>
  <CellData>
        <DataArray type="Float64" Name="axial_strain_GPs" NumberOfComponents="3" format="ascii">
2.707322489203801e-05 3.563038838638732e-05 4.320799246571028e-05
5.114038304143698e-05 5.282666665018532e-05 5.414429643590957e-05
5.414429643590957e-05 5.412411563920916e-05 5.381246826874353e-05
        </DataArray>
        <DataArray type="Float64" Name="cross_section_radius" format="ascii">
5.707319930889453e-01
5.707319930889453e-01
5.707319930889453e-01
        </DataArray>
        <DataArray type="Float64" Name="curvature_2_GPs" NumberOfComponents="2" format="ascii">
-2.022748065548633e-02 -2.022748065548633e-02
-7.135361436757007e-03 -7.135361436757008e-03
-2.276086903781046e-03 -2.276086903781046e-03
        </DataArray>
        <DataArray type="Float64" Name="curvature_3_GPs" NumberOfComponents="2" format="ascii">
-6.774664924713569e-04 -6.774664924713569e-04
-1.837520043658602e-03 -1.837520043658602e-03
-9.184370679452165e-04 -9.184370679452183e-04
        </DataArray>
        <DataArray type="Float64" Name="element_gid" format="ascii">
1.000000000000000e+00
3.000000000000000e+00
4.000000000000000e+00
        </DataArray>
        <DataArray type="Float64" Name="element_owner" format="ascii">
1.000000000000000e+00
1.000000000000000e+00
1.000000000000000e+00
        </DataArray>
        <DataArray type="Float64" Name="material_axial_force_GPs" NumberOfComponents="3" format="ascii">
2.707322489203801e+02 3.563038838638732e+02 4.320799246571028e+02
5.114038304143697e+02 5.282666665018531e+02 5.414429643590956e+02
5.414429643590956e+02 5.412411563920916e+02 5.381246826874353e+02
        </DataArray>
        <DataArray type="Float64" Name="material_bending_moment_2_GPs" NumberOfComponents="2" format="ascii">
-1.685623387957194e+04 -1.685623387957194e+04
-5.946134530630839e+03 -5.946134530630839e+03
-1.896739086484205e+03 -1.896739086484205e+03
        </DataArray>
        <DataArray type="Float64" Name="material_bending_moment_3_GPs" NumberOfComponents="2" format="ascii">
-5.645554103927974e+02 -5.645554103927974e+02
-1.531266703048834e+03 -1.531266703048834e+03
-7.653642232876804e+02 -7.653642232876819e+02
        </DataArray>
        <DataArray type="Float64" Name="material_shear_force_2_GPs" NumberOfComponents="3" format="ascii">
7.194869463472583e+01 7.217963562995931e+01 6.373805516863192e+01
1.729485730025150e+01 -1.382590147336385e+01 -4.612959751774486e+01
-4.612959751710879e+01 -8.462048493550201e+01 -1.229983179430969e+02
        </DataArray>
        <DataArray type="Float64" Name="material_shear_force_3_GPs" NumberOfComponents="3" format="ascii">
5.305915893941138e+02 4.773234150390790e+02 4.113932413535304e+02
3.133161504758712e+02 2.841534330400482e+02 2.543847019314168e+02
2.543847019321107e+02 2.447394209163326e+02 2.351451459450815e+02
        </DataArray>
        <DataArray type="Float64" Name="material_torque_GPs" NumberOfComponents="2" format="ascii">
4.118073223579511e+03 4.118073223579511e+03
6.663037510969059e+02 6.663037510969058e+02
4.966031218943460e+01 4.966031218943461e+01
        </DataArray>
        <DataArray type="Float64" Name="ref_length" format="ascii">
1.570794997726973e+01
1.570794997726974e+01
1.570794997726974e+01
        </DataArray>
        <DataArray type="Float64" Name="shear_strain_2_GPs" NumberOfComponents="3" format="ascii">
1.726768671233420e-05 1.732311255119023e-05 1.529713324047166e-05
4.150765752060359e-06 -3.318216353607323e-06 -1.107110340425876e-05
-1.107110340410611e-05 -2.030891638452048e-05 -2.951959630634327e-05
        </DataArray>
        <DataArray type="Float64" Name="shear_strain_3_GPs" NumberOfComponents="3" format="ascii">
1.273419814545873e-04 1.145576196093789e-04 9.873437792484729e-05
7.519587611420908e-05 6.819682392961157e-05 6.105232846354003e-05
6.105232846370656e-05 5.873746101991983e-05 5.643483502681956e-05
        </DataArray>
        <DataArray type="Float64" Name="twist_GPs" NumberOfComponents="2" format="ascii">
5.857856648050514e-03 5.857856648050514e-03
9.478004994266086e-04 9.478004994266085e-04
7.064055787970782e-05 7.064055787970783e-05
        </DataArray>
      </CellData>

    </Piece>
  </UnstructuredGrid>
</VTKFile>
