<?xml version="1.0" ?> 
<!-- 
# vtk DataFile Version 3.0
-->
<VTKFile type="UnstructuredGrid" version="0.1" compressor="vtkZLibDataCompressor" byte_order="LittleEndian">
  <UnstructuredGrid>
    <FieldData>
      <DataArray type="Float64" Name="TIME" NumberOfTuples="1" format="ascii">
0.000000000000000e+00 
      </DataArray>
    </FieldData>

    <Piece NumberOfPoints="12" NumberOfCells="2" >
      <Points>
        <DataArray type="Float64" NumberOfComponents="3" format="ascii">
0.000000000000000e+00 0.000000000000000e+00 0.000000000000000e+00
3.141067591235025e+00 4.940891832958129e-02 0.000000000000000e+00
6.279038995146355e+00 1.974733926081928e-01 0.000000000000000e+00
9.410821253842483e+00 4.439500017706363e-01 0.000000000000000e+00
1.253332140943190e+01 7.885953247517139e-01 0.000000000000000e+00
1.564344650402309e+01 1.231165940486227e+00 0.000000000000000e+00
3.090169943749474e+01 4.894348370484642e+00 0.000000000000000e+00
3.387376404282481e+01 5.911982310397088e+00 0.000000000000000e+00
3.681239775564724e+01 7.022486485162791e+00 0.000000000000000e+00
3.971473421945064e+01 8.224673611040128e+00 0.000000000000000e+00
4.257790707772359e+01 9.517356404287476e+00 0.000000000000000e+00
4.539904997395467e+01 1.089934758116321e+01 0.000000000000000e+00
        </DataArray>
      </Points>

      <Cells>
        <DataArray type="Int32" Name="connectivity" format="ascii">
0 1 2 3 4 5 6 7 8 9 10 11 
        </DataArray>
        <DataArray type="Int32" Name="offsets" format="ascii">
6 12 
        </DataArray>
        <DataArray type="UInt8" Name="types" format="ascii">
4 4 
        </DataArray>
      </Cells>

  <PointData>
        <DataArray type="Float64" Name="base_vector_1" NumberOfComponents="3" format="ascii">
1.000000000000000e+00 0.000000000000000e+00 0.000000000000000e+00
9.995065603657316e-01 3.141075907812836e-02 0.000000000000000e+00
9.980267284282716e-01 6.279051952931350e-02 0.000000000000000e+00
9.955619646030800e-01 9.410831331851448e-02 0.000000000000000e+00
9.921147013144778e-01 1.253332335643045e-01 0.000000000000000e+00
9.876883405951377e-01 1.564344650402311e-01 0.000000000000000e+00
9.510565162951536e-01 3.090169943749471e-01 0.000000000000000e+00
9.408807689542256e-01 3.387379202452911e-01 0.000000000000000e+00
9.297764858882515e-01 3.681245526846777e-01 0.000000000000000e+00
9.177546256839813e-01 3.971478906347805e-01 0.000000000000000e+00
9.048270524660196e-01 4.257792915650727e-01 0.000000000000000e+00
8.910065241883679e-01 4.539904997395468e-01 0.000000000000000e+00
        </DataArray>
        <DataArray type="Float64" Name="base_vector_2" NumberOfComponents="3" format="ascii">
0.000000000000000e+00 1.000000000000000e+00 0.000000000000000e+00
-3.141075907812836e-02 9.995065603657316e-01 0.000000000000000e+00
-6.279051952931350e-02 9.980267284282716e-01 0.000000000000000e+00
-9.410831331851448e-02 9.955619646030800e-01 0.000000000000000e+00
-1.253332335643045e-01 9.921147013144778e-01 0.000000000000000e+00
-1.564344650402311e-01 9.876883405951377e-01 0.000000000000000e+00
-3.090169943749471e-01 9.510565162951536e-01 0.000000000000000e+00
-3.387379202452911e-01 9.408807689542256e-01 0.000000000000000e+00
-3.681245526846777e-01 9.297764858882515e-01 0.000000000000000e+00
-3.971478906347805e-01 9.177546256839813e-01 0.000000000000000e+00
-4.257792915650727e-01 9.048270524660196e-01 0.000000000000000e+00
-4.539904997395468e-01 8.910065241883679e-01 0.000000000000000e+00
        </DataArray>
        <DataArray type="Float64" Name="base_vector_3" NumberOfComponents="3" format="ascii">
0.000000000000000e+00 0.000000000000000e+00 1.000000000000000e+00
0.000000000000000e+00 0.000000000000000e+00 1.000000000000000e+00
0.000000000000000e+00 0.000000000000000e+00 1.000000000000000e+00
0.000000000000000e+00 0.000000000000000e+00 1.000000000000000e+00
0.000000000000000e+00 0.000000000000000e+00 1.000000000000000e+00
0.000000000000000e+00 0.000000000000000e+00 1.000000000000000e+00
0.000000000000000e+00 0.000000000000000e+00 1.000000000000000e+00
0.000000000000000e+00 0.000000000000000e+00 1.000000000000000e+00
0.000000000000000e+00 0.000000000000000e+00 1.000000000000000e+00
0.000000000000000e+00 0.000000000000000e+00 1.000000000000000e+00
0.000000000000000e+00 0.000000000000000e+00 1.000000000000000e+00
0.000000000000000e+00 0.000000000000000e+00 1.000000000000000e+00
        </DataArray>
        <DataArray type="Float64" Name="displacement" NumberOfComponents="3" format="ascii">
0.000000000000000e+00 0.000000000000000e+00 0.000000000000000e+00
0.000000000000000e+00 0.000000000000000e+00 0.000000000000000e+00
0.000000000000000e+00 0.000000000000000e+00 0.000000000000000e+00
0.000000000000000e+00 0.000000000000000e+00 0.000000000000000e+00
0.000000000000000e+00 0.000000000000000e+00 0.000000000000000e+00
0.000000000000000e+00 0.000000000000000e+00 0.000000000000000e+00
0.000000000000000e+00 0.000000000000000e+00 0.000000000000000e+00
0.000000000000000e+00 0.000000000000000e+00 0.000000000000000e+00
0.000000000000000e+00 0.000000000000000e+00 0.000000000000000e+00
0.000000000000000e+00 0.000000000000000e+00 0.000000000000000e+00
0.000000000000000e+00 0.000000000000000e+00 0.000000000000000e+00
0.000000000000000e+00 0.000000000000000e+00 0.000000000000000e+00
        </DataArray>
  </PointData>
  <CellData>
        <DataArray type="Float64" Name="axial_strain_GPs" NumberOfComponents="3" format="ascii">
0.000000000000000e+00 0.000000000000000e+00 0.000000000000000e+00
0.000000000000000e+00 0.000000000000000e+00 0.000000000000000e+00
        </DataArray>
        <DataArray type="Float64" Name="cross_section_radius" format="ascii">
5.707319930889453e-01
5.707319930889453e-01
        </DataArray>
        <DataArray type="Float64" Name="curvature_2_GPs" NumberOfComponents="2" format="ascii">
0.000000000000000e+00 0.000000000000000e+00
0.000000000000000e+00 0.000000000000000e+00
        </DataArray>
        <DataArray type="Float64" Name="curvature_3_GPs" NumberOfComponents="2" format="ascii">
0.000000000000000e+00 0.000000000000000e+00
0.000000000000000e+00 0.000000000000000e+00
        </DataArray>
        <DataArray type="Float64" Name="element_gid" format="ascii">
0.000000000000000e+00
2.000000000000000e+00
        </DataArray>
        <DataArray type="Float64" Name="element_owner" format="ascii">
0.000000000000000e+00
0.000000000000000e+00
        </DataArray>
        <DataArray type="Float64" Name="material_axial_force_GPs" NumberOfComponents="3" format="ascii">
0.000000000000000e+00 0.000000000000000e+00 0.000000000000000e+00
0.000000000000000e+00 0.000000000000000e+00 0.000000000000000e+00
        </DataArray>
        <DataArray type="Float64" Name="material_bending_moment_2_GPs" NumberOfComponents="2" format="ascii">
0.000000000000000e+00 0.000000000000000e+00
0.000000000000000e+00 0.000000000000000e+00
        </DataArray>
        <DataArray type="Float64" Name="material_bending_moment_3_GPs" NumberOfComponents="2" format="ascii">
0.000000000000000e+00 0.000000000000000e+00
0.000000000000000e+00 0.000000000000000e+00
        </DataArray>
        <DataArray type="Float64" Name="material_shear_force_2_GPs" NumberOfComponents="3" format="ascii">
0.000000000000000e+00 0.000000000000000e+00 0.000000000000000e+00
0.000000000000000e+00 0.000000000000000e+00 0.000000000000000e+00
        </DataArray>
        <DataArray type="Float64" Name="material_shear_force_3_GPs" NumberOfComponents="3" format="ascii">
0.000000000000000e+00 0.000000000000000e+00 0.000000000000000e+00
0.000000000000000e+00 0.000000000000000e+00 0.000000000000000e+00
        </DataArray>
        <DataArray type="Float64" Name="material_torque_GPs" NumberOfComponents="2" format="ascii">
0.000000000000000e+00 0.000000000000000e+00
0.000000000000000e+00 0.000000000000000e+00
        </DataArray>
        <DataArray type="Float64" Name="ref_length" format="ascii">
1.570792349466516e+01
1.570792349466515e+01
        </DataArray>
        <DataArray type="Float64" Name="shear_strain_2_GPs" NumberOfComponents="3" format="ascii">
0.000000000000000e+00 0.000000000000000e+00 0.000000000000000e+00
0.000000000000000e+00 0.000000000000000e+00 0.000000000000000e+00
        </DataArray>
        <DataArray type="Float64" Name="shear_strain_3_GPs" NumberOfComponents="3" format="ascii">
0.000000000000000e+00 0.000000000000000e+00 0.000000000000000e+00
0.000000000000000e+00 0.000000000000000e+00 0.000000000000000e+00
        </DataArray>
        <DataArray type="Float64" Name="twist_GPs" NumberOfComponents="2" format="ascii">
0.000000000000000e+00 0.000000000000000e+00
0.000000000000000e+00 0.000000000000000e+00
        </DataArray>
      </CellData>

    </Piece>
  </UnstructuredGrid>
</VTKFile>
