<?xml version="1.0" ?> 
<!-- 
# vtk DataFile Version 3.0
-->
<VTKFile type="UnstructuredGrid" version="0.1" compressor="vtkZLibDataCompressor" byte_order="LittleEndian">
  <UnstructuredGrid>
    <FieldData>
      <DataArray type="Float64" Name="TIME" NumberOfTuples="1" format="ascii">
9.999999999999999e-01 
      </DataArray>
    </FieldData>

    <Piece NumberOfPoints="18" NumberOfCells="3" >
      <Points>
        <DataArray type="Float64" NumberOfComponents="3" format="ascii">
1.510132183919861e+01 1.012758728901777e+00 3.591112308079328e+00
1.782812931013985e+01 1.394943457697883e+00 5.102424240061954e+00
2.043922148195731e+01 1.823094206819071e+00 6.794995671478388e+00
2.292253306461134e+01 2.290993073989224e+00 8.660617495373984e+00
2.526599876806228e+01 2.792422156932229e+00 1.069108060479411e+01
2.745755330227047e+01 3.321163553371968e+00 1.287817589278410e+01
3.651474925341924e+01 6.412739877916834e+00 2.528666521830848e+01
3.796280550664007e+01 7.118969586210362e+00 2.798369809432220e+01
3.931926517204673e+01 7.867123296628436e+00 3.071681980234046e+01
4.058258067648288e+01 8.656001425639005e+00 3.348293924818470e+01
4.175120444679221e+01 9.484404389710020e+00 3.627896533767635e+01
4.282358890981841e+01 1.035113260530943e+01 3.910180697663685e+01
4.282358890981841e+01 1.035113260530943e+01 3.910180697663685e+01
4.381491188873861e+01 1.126959079287810e+01 4.193793712074407e+01
4.474087789285168e+01 1.225336964964840e+01 4.477425974629702e+01
4.560072937818391e+01 1.330154855727556e+01 4.760833029004882e+01
4.639370880076165e+01 1.441320689741480e+01 5.043770418875259e+01
4.711905861661116e+01 1.558742405172136e+01 5.325993687916146e+01
        </DataArray>
      </Points>

      <Cells>
        <DataArray type="Int32" Name="connectivity" format="ascii">
0 1 2 3 4 5 6 7 8 9 10 11 12 13 14 15 16 17 
        </DataArray>
        <DataArray type="Int32" Name="offsets" format="ascii">
6 12 18 
        </DataArray>
        <DataArray type="UInt8" Name="types" format="ascii">
4 4 4 
        </DataArray>
      </Cells>

  <PointData>
        <DataArray type="Float64" Name="base_vector_1" NumberOfComponents="3" format="ascii">
8.851420607797578e-01 1.136823149369001e-01 4.512204156608511e-01
8.504461860901873e-01 1.292391970830921e-01 5.099397165371338e-01
8.115883130516750e-01 1.429159901745705e-01 5.664798583095066e-01
7.687717576515192e-01 1.546411331485946e-01 6.205450060840976e-01
7.222205488844433e-01 1.643532765582296e-01 6.718522748741927e-01
6.721782565660425e-01 1.720016035709597e-01 7.201332097389025e-01
4.753797073972741e-01 2.180163673330676e-01 8.523397194603659e-01
4.465020737969883e-01 2.315376839489235e-01 8.643067736669415e-01
4.170800974389315e-01 2.447001309890613e-01 8.753091100944099e-01
3.871481672982008e-01 2.574883239307701e-01 8.853338689991291e-01
3.567412683937397e-01 2.698873156867688e-01 8.943693332489752e-01
3.258949408971692e-01 2.818826140756504e-01 9.024049420185535e-01
3.258949408971692e-01 2.818826140756504e-01 9.024049420185535e-01
3.052277592548991e-01 3.028045486298687e-01 9.028540415312405e-01
2.842923752333016e-01 3.234603664492958e-01 9.025249230468348e-01
2.631069002566686e-01 3.438321979653471e-01 9.014178712892519e-01
2.416896621056475e-01 3.639024192890220e-01 8.995338439807892e-01
2.200591890616825e-01 3.836536674575188e-01 8.968744710135922e-01
        </DataArray>
        <DataArray type="Float64" Name="base_vector_2" NumberOfComponents="3" format="ascii">
-1.863693989949985e-01 9.751343303888756e-01 1.199144895968879e-01
-2.201193892307601e-01 9.678373317283262e-01 1.218127817499912e-01
-2.537114024253501e-01 9.596333480114436e-01 1.213851789293476e-01
-2.869696751415561e-01 9.505653049291818e-01 1.186339184805151e-01
-3.197201901719404e-01 9.406806491889379e-01 1.135733958191648e-01
-3.517915870487969e-01 9.300311002592208e-01 1.062300891099690e-01
-4.589334702940890e-01 8.880029297172618e-01 2.882475771596762e-02
-4.730031302317071e-01 8.810212845294693e-01 8.338764719715980e-03
-4.863508296963422e-01 8.736742141487233e-01 -1.249951940237662e-02
-4.989609676386666e-01 8.659703059730043e-01 -3.366573846073853e-02
-5.108188050855260e-01 8.579185644792104e-01 -5.513515296910110e-02
-5.219104823671383e-01 8.495284006985502e-01 -7.688266906048902e-02
-5.219104823671383e-01 8.495284006985502e-01 -7.688266906048902e-02
-5.310894684863825e-01 8.410878489641349e-01 -1.025436823394612e-01
-5.396753974095746e-01 8.320536139640066e-01 -1.282078348629824e-01
-5.476608413579118e-01 8.224335113113426e-01 -1.538529242986303e-01
-5.550388920385554e-01 8.122358634596833e-01 -1.794567648056638e-01
-5.618031666210703e-01 8.014694925030886e-01 -2.049972062282302e-01
        </DataArray>
        <DataArray type="Float64" Name="base_vector_3" NumberOfComponents="3" format="ascii">
-4.263683611113832e-01 -1.902350361201283e-01 8.843193154486488e-01
-4.777957084877718e-01 -2.158428346049772e-01 8.515416206506625e-01
-5.262650799713949e-01 -2.422371918941633e-01 8.150866263569363e-01
-5.715228693469263e-01 -2.692800048340210e-01 7.751450759761336e-01
-6.133322743549959e-01 -2.968297773574149e-01 7.319259556187878e-01
-6.514745357122752e-01 -3.247423608333869e-01 6.856554006196072e-01
-7.505958990287029e-01 -4.048699302102500e-01 5.221935809379896e-01
-7.595419256933721e-01 -4.125430851651891e-01 5.028958798761349e-01
-7.677936329340138e-01 -4.204940111649001e-01 4.834022381003650e-01
-7.753413759955868e-01 -4.287134150132744e-01 4.637354401562663e-01
-7.821763329299994e-01 -4.371916897121000e-01 4.439184729777053e-01
-7.882905149073735e-01 -4.459189256899079e-01 4.239744990192532e-01
-7.882905149073735e-01 -4.459189256899079e-01 4.239744990192532e-01
-7.904302571657320e-01 -4.481970946513888e-01 4.175396662629418e-01
-7.924192771601568e-01 -4.506219866206301e-01 4.111101000450503e-01
-7.942558541682095e-01 -4.531915037976928e-01 4.046913626519771e-01
-7.959383993475064e-01 -4.559034232658266e-01 3.982890070019883e-01
-7.974654571102456e-01 -4.587553989145383e-01 3.919085718413290e-01
        </DataArray>
        <DataArray type="Float64" Name="displacement" NumberOfComponents="3" format="ascii">
-5.421246648244846e-01 -2.184072115844495e-01 3.591112308079328e+00
-9.099837730602189e-01 -3.763943236339473e-01 5.102424240061954e+00
-1.375066983181693e+00 -5.853720072965043e-01 6.794995671478388e+00
-1.946422786225281e+00 -8.508338954871362e-01 8.660617495373984e+00
-2.633099673227349e+00 -1.178273621120854e+00 1.069108060479411e+01
-3.444146135224269e+00 -1.573184817112674e+00 1.287817589278410e+01
-8.884300720535428e+00 -4.486607703246377e+00 2.528666521830848e+01
-1.021252500449760e+01 -5.250416508998077e+00 2.798369809432220e+01
-1.158479846802106e+01 -6.058798416992881e+00 3.071681980234046e+01
-1.300002334945277e+01 -6.911331947506772e+00 3.348293924818470e+01
-1.445710188713974e+01 -7.807595620815755e+00 3.627896533767635e+01
-1.595493631942890e+01 -8.747167957195817e+00 3.910180697663685e+01
-1.595493631942890e+01 -8.747167957195817e+00 3.910180697663685e+01
-1.747574856877235e+01 -9.714955630811257e+00 4.193793712074407e+01
-1.900142464391677e+01 -1.069541676333013e+01 4.477425974629702e+01
-2.053036291265090e+01 -1.168745704628409e+01 4.760833029004882e+01
-2.206096174276359e+01 -1.268998217120480e+01 5.043770418875259e+01
-2.359161950204360e+01 -1.370189782962388e+01 5.325993687916146e+01
        </DataArray>
  </PointData>
  <CellData>
        <DataArray type="Float64" Name="axial_strain_GPs" NumberOfComponents="3" format="ascii">
2.707322493977760e-05 3.563038847831379e-05 4.320799258428210e-05
5.114038316755831e-05 5.282666676054149e-05 5.414429652095265e-05
5.414429652106367e-05 5.412411568539444e-05 5.381246826108299e-05
        </DataArray>
        <DataArray type="Float64" Name="cross_section_radius" format="ascii">
5.707319930889453e-01
5.707319930889453e-01
5.707319930889453e-01
        </DataArray>
        <DataArray type="Float64" Name="curvature_2_GPs" NumberOfComponents="2" format="ascii">
-2.022748086609421e-02 -2.022748086609421e-02
-7.135361523177845e-03 -7.135361523177845e-03
-2.276086929225180e-03 -2.276086929225180e-03
        </DataArray>
        <DataArray type="Float64" Name="curvature_3_GPs" NumberOfComponents="2" format="ascii">
-6.774664873005296e-04 -6.774664873005296e-04
-1.837519979735046e-03 -1.837519979735046e-03
-9.184369116743904e-04 -9.184369116743904e-04
        </DataArray>
        <DataArray type="Float64" Name="element_gid" format="ascii">
1.000000000000000e+00
3.000000000000000e+00
4.000000000000000e+00
        </DataArray>
        <DataArray type="Float64" Name="element_owner" format="ascii">
1.000000000000000e+00
1.000000000000000e+00
1.000000000000000e+00
        </DataArray>
        <DataArray type="Float64" Name="material_axial_force_GPs" NumberOfComponents="3" format="ascii">
2.707322493977759e+02 3.563038847831379e+02 4.320799258428210e+02
5.114038316755831e+02 5.282666676054148e+02 5.414429652095265e+02
5.414429652106368e+02 5.412411568539444e+02 5.381246826108300e+02
        </DataArray>
        <DataArray type="Float64" Name="material_bending_moment_2_GPs" NumberOfComponents="2" format="ascii">
-1.685623405507850e+04 -1.685623405507850e+04
-5.946134602648203e+03 -5.946134602648204e+03
-1.896739107687650e+03 -1.896739107687650e+03
        </DataArray>
        <DataArray type="Float64" Name="material_bending_moment_3_GPs" NumberOfComponents="2" format="ascii">
-5.645554060837746e+02 -5.645554060837746e+02
-1.531266649779205e+03 -1.531266649779205e+03
-7.653640930619920e+02 -7.653640930619920e+02
        </DataArray>
        <DataArray type="Float64" Name="material_shear_force_2_GPs" NumberOfComponents="3" format="ascii">
7.194869375779419e+01 7.217963434562787e+01 6.373805346542260e+01
1.729485463033859e+01 -1.382590478145260e+01 -4.612960143579129e+01
-4.612960143567565e+01 -8.462048981793906e+01 -1.229983237378829e+02
        </DataArray>
        <DataArray type="Float64" Name="material_shear_force_3_GPs" NumberOfComponents="3" format="ascii">
5.305915892682885e+02 4.773234145468801e+02 4.113932403714456e+02
3.133161485644372e+02 2.841534308369494e+02 2.543846994100541e+02
2.543846994100541e+02 2.447394182457837e+02 2.351451431056861e+02
        </DataArray>
        <DataArray type="Float64" Name="material_torque_GPs" NumberOfComponents="2" format="ascii">
4.118073180632084e+03 4.118073180632084e+03
6.663036754785261e+02 6.663036754785263e+02
4.966022902621269e+01 4.966022902621269e+01
        </DataArray>
        <DataArray type="Float64" Name="ref_length" format="ascii">
1.570792349466516e+01
1.570792349466517e+01
1.570792349466517e+01
        </DataArray>
        <DataArray type="Float64" Name="shear_strain_2_GPs" NumberOfComponents="3" format="ascii">
1.726768650187060e-05 1.732311224295069e-05 1.529713283170142e-05
4.150765111281263e-06 -3.318217147548624e-06 -1.107110434458991e-05
-1.107110434456215e-05 -2.030891755630537e-05 -2.951959769709189e-05
        </DataArray>
        <DataArray type="Float64" Name="shear_strain_3_GPs" NumberOfComponents="3" format="ascii">
1.273419814243892e-04 1.145576194912512e-04 9.873437768914695e-05
7.519587565546493e-05 6.819682340086786e-05 6.105232785841297e-05
6.105232785841297e-05 5.873746037898808e-05 5.643483434536467e-05
        </DataArray>
        <DataArray type="Float64" Name="twist_GPs" NumberOfComponents="2" format="ascii">
5.857856586958868e-03 5.857856586958867e-03
9.478003918613458e-04 9.478003918613461e-04
7.064043958209486e-05 7.064043958209486e-05
        </DataArray>
      </CellData>

    </Piece>
  </UnstructuredGrid>
</VTKFile>
