<?xml version="1.0" ?> 
<!-- 
# vtk DataFile Version 3.0
-->
<VTKFile type="UnstructuredGrid" version="0.1" compressor="vtkZLibDataCompressor" byte_order="LittleEndian">
  <UnstructuredGrid>
    <FieldData>
      <DataArray type="Float64" Name="TIME" NumberOfTuples="1" format="ascii">
0.000000000000000e+00 
      </DataArray>
    </FieldData>

    <Piece NumberOfPoints="18" NumberOfCells="3" >
      <Points>
        <DataArray type="Float64" NumberOfComponents="3" format="ascii">
1.564344650402309e+01 1.231165940486227e+00 0.000000000000000e+00
1.873811308320007e+01 1.771337781331831e+00 0.000000000000000e+00
2.181428846513901e+01 2.408466214115576e+00 0.000000000000000e+00
2.486895585083662e+01 3.141826969476361e+00 0.000000000000000e+00
2.789909844128963e+01 3.970695778053083e+00 0.000000000000000e+00
3.090169943749474e+01 4.894348370484642e+00 0.000000000000000e+00
4.539904997395467e+01 1.089934758116321e+01 0.000000000000000e+00
4.817533051113767e+01 1.236938609520844e+01 0.000000000000000e+00
5.090406364006778e+01 1.392592171362132e+01 0.000000000000000e+00
5.358260402593565e+01 1.556733337314578e+01 0.000000000000000e+00
5.620830633393194e+01 1.729200001052578e+01 0.000000000000000e+00
5.877852522924731e+01 1.909830056250525e+01 0.000000000000000e+00
5.877852522924731e+01 1.909830056250525e+01 0.000000000000000e+00
6.129066045751097e+01 2.098454642368936e+01 0.000000000000000e+00
6.374230253676845e+01 2.294878641297854e+01 0.000000000000000e+00
6.613109229083481e+01 2.498900560355965e+01 0.000000000000000e+00
6.845467054352524e+01 2.710318906861960e+01 0.000000000000000e+00
7.071067811865476e+01 2.928932188134524e+01 0.000000000000000e+00
        </DataArray>
      </Points>

      <Cells>
        <DataArray type="Int32" Name="connectivity" format="ascii">
0 1 2 3 4 5 6 7 8 9 10 11 12 13 14 15 16 17 
        </DataArray>
        <DataArray type="Int32" Name="offsets" format="ascii">
6 12 18 
        </DataArray>
        <DataArray type="UInt8" Name="types" format="ascii">
4 4 4 
        </DataArray>
      </Cells>

  <PointData>
        <DataArray type="Float64" Name="base_vector_1" NumberOfComponents="3" format="ascii">
9.876883405951377e-01 1.564344650402312e-01 0.000000000000000e+00
9.822872507286886e-01 1.873813145857249e-01 0.000000000000000e+00
9.759167619387474e-01 2.181432413965426e-01 0.000000000000000e+00
9.685831611286311e-01 2.486898871648547e-01 0.000000000000000e+00
9.602936856769431e-01 2.789911060392291e-01 0.000000000000000e+00
9.510565162951536e-01 3.090169943749471e-01 0.000000000000000e+00
8.910065241883679e-01 4.539904997395468e-01 0.000000000000000e+00
8.763066800438635e-01 4.817536741017154e-01 0.000000000000000e+00
8.607420270039436e-01 5.090414157503713e-01 0.000000000000000e+00
8.443279255020150e-01 5.358267949789967e-01 0.000000000000000e+00
8.270805742745617e-01 5.620833778521307e-01 0.000000000000000e+00
8.090169943749472e-01 5.877852522924732e-01 0.000000000000000e+00
8.090169943749472e-01 5.877852522924732e-01 0.000000000000000e+00
7.901550123756902e-01 6.129070536529767e-01 0.000000000000000e+00
7.705132427757893e-01 6.374239897486896e-01 0.000000000000000e+00
7.501110696304596e-01 6.613118653236517e-01 0.000000000000000e+00
7.289686274214117e-01 6.845471059286885e-01 0.000000000000000e+00
7.071067811865477e-01 7.071067811865472e-01 0.000000000000000e+00
        </DataArray>
        <DataArray type="Float64" Name="base_vector_2" NumberOfComponents="3" format="ascii">
-1.564344650402312e-01 9.876883405951377e-01 0.000000000000000e+00
-1.873813145857249e-01 9.822872507286886e-01 0.000000000000000e+00
-2.181432413965426e-01 9.759167619387474e-01 0.000000000000000e+00
-2.486898871648547e-01 9.685831611286311e-01 0.000000000000000e+00
-2.789911060392291e-01 9.602936856769431e-01 0.000000000000000e+00
-3.090169943749471e-01 9.510565162951536e-01 0.000000000000000e+00
-4.539904997395468e-01 8.910065241883679e-01 0.000000000000000e+00
-4.817536741017154e-01 8.763066800438635e-01 0.000000000000000e+00
-5.090414157503713e-01 8.607420270039436e-01 0.000000000000000e+00
-5.358267949789967e-01 8.443279255020150e-01 0.000000000000000e+00
-5.620833778521307e-01 8.270805742745617e-01 0.000000000000000e+00
-5.877852522924732e-01 8.090169943749472e-01 0.000000000000000e+00
-5.877852522924732e-01 8.090169943749472e-01 0.000000000000000e+00
-6.129070536529767e-01 7.901550123756902e-01 0.000000000000000e+00
-6.374239897486896e-01 7.705132427757893e-01 0.000000000000000e+00
-6.613118653236517e-01 7.501110696304596e-01 0.000000000000000e+00
-6.845471059286885e-01 7.289686274214117e-01 0.000000000000000e+00
-7.071067811865472e-01 7.071067811865477e-01 0.000000000000000e+00
        </DataArray>
        <DataArray type="Float64" Name="base_vector_3" NumberOfComponents="3" format="ascii">
0.000000000000000e+00 0.000000000000000e+00 1.000000000000000e+00
0.000000000000000e+00 0.000000000000000e+00 1.000000000000000e+00
0.000000000000000e+00 0.000000000000000e+00 1.000000000000000e+00
0.000000000000000e+00 0.000000000000000e+00 1.000000000000000e+00
0.000000000000000e+00 0.000000000000000e+00 1.000000000000000e+00
0.000000000000000e+00 0.000000000000000e+00 1.000000000000000e+00
0.000000000000000e+00 0.000000000000000e+00 1.000000000000000e+00
0.000000000000000e+00 0.000000000000000e+00 1.000000000000000e+00
0.000000000000000e+00 0.000000000000000e+00 1.000000000000000e+00
0.000000000000000e+00 0.000000000000000e+00 1.000000000000000e+00
0.000000000000000e+00 0.000000000000000e+00 1.000000000000000e+00
0.000000000000000e+00 0.000000000000000e+00 1.000000000000000e+00
0.000000000000000e+00 0.000000000000000e+00 1.000000000000000e+00
0.000000000000000e+00 0.000000000000000e+00 1.000000000000000e+00
0.000000000000000e+00 0.000000000000000e+00 1.000000000000000e+00
0.000000000000000e+00 0.000000000000000e+00 1.000000000000000e+00
0.000000000000000e+00 0.000000000000000e+00 1.000000000000000e+00
0.000000000000000e+00 0.000000000000000e+00 1.000000000000000e+00
        </DataArray>
        <DataArray type="Float64" Name="displacement" NumberOfComponents="3" format="ascii">
0.000000000000000e+00 0.000000000000000e+00 0.000000000000000e+00
0.000000000000000e+00 0.000000000000000e+00 0.000000000000000e+00
0.000000000000000e+00 0.000000000000000e+00 0.000000000000000e+00
0.000000000000000e+00 0.000000000000000e+00 0.000000000000000e+00
0.000000000000000e+00 0.000000000000000e+00 0.000000000000000e+00
0.000000000000000e+00 0.000000000000000e+00 0.000000000000000e+00
0.000000000000000e+00 0.000000000000000e+00 0.000000000000000e+00
0.000000000000000e+00 0.000000000000000e+00 0.000000000000000e+00
0.000000000000000e+00 0.000000000000000e+00 0.000000000000000e+00
0.000000000000000e+00 0.000000000000000e+00 0.000000000000000e+00
0.000000000000000e+00 0.000000000000000e+00 0.000000000000000e+00
0.000000000000000e+00 0.000000000000000e+00 0.000000000000000e+00
0.000000000000000e+00 0.000000000000000e+00 0.000000000000000e+00
0.000000000000000e+00 0.000000000000000e+00 0.000000000000000e+00
0.000000000000000e+00 0.000000000000000e+00 0.000000000000000e+00
0.000000000000000e+00 0.000000000000000e+00 0.000000000000000e+00
0.000000000000000e+00 0.000000000000000e+00 0.000000000000000e+00
0.000000000000000e+00 0.000000000000000e+00 0.000000000000000e+00
        </DataArray>
  </PointData>
  <CellData>
        <DataArray type="Float64" Name="axial_strain_GPs" NumberOfComponents="3" format="ascii">
0.000000000000000e+00 0.000000000000000e+00 0.000000000000000e+00
0.000000000000000e+00 0.000000000000000e+00 0.000000000000000e+00
0.000000000000000e+00 0.000000000000000e+00 0.000000000000000e+00
        </DataArray>
        <DataArray type="Float64" Name="cross_section_radius" format="ascii">
5.707319930889453e-01
5.707319930889453e-01
5.707319930889453e-01
        </DataArray>
        <DataArray type="Float64" Name="curvature_2_GPs" NumberOfComponents="2" format="ascii">
0.000000000000000e+00 0.000000000000000e+00
0.000000000000000e+00 0.000000000000000e+00
0.000000000000000e+00 0.000000000000000e+00
        </DataArray>
        <DataArray type="Float64" Name="curvature_3_GPs" NumberOfComponents="2" format="ascii">
0.000000000000000e+00 0.000000000000000e+00
0.000000000000000e+00 0.000000000000000e+00
0.000000000000000e+00 0.000000000000000e+00
        </DataArray>
        <DataArray type="Float64" Name="element_gid" format="ascii">
1.000000000000000e+00
3.000000000000000e+00
4.000000000000000e+00
        </DataArray>
        <DataArray type="Float64" Name="element_owner" format="ascii">
1.000000000000000e+00
1.000000000000000e+00
1.000000000000000e+00
        </DataArray>
        <DataArray type="Float64" Name="material_axial_force_GPs" NumberOfComponents="3" format="ascii">
0.000000000000000e+00 0.000000000000000e+00 0.000000000000000e+00
0.000000000000000e+00 0.000000000000000e+00 0.000000000000000e+00
0.000000000000000e+00 0.000000000000000e+00 0.000000000000000e+00
        </DataArray>
        <DataArray type="Float64" Name="material_bending_moment_2_GPs" NumberOfComponents="2" format="ascii">
0.000000000000000e+00 0.000000000000000e+00
0.000000000000000e+00 0.000000000000000e+00
0.000000000000000e+00 0.000000000000000e+00
        </DataArray>
        <DataArray type="Float64" Name="material_bending_moment_3_GPs" NumberOfComponents="2" format="ascii">
0.000000000000000e+00 0.000000000000000e+00
0.000000000000000e+00 0.000000000000000e+00
0.000000000000000e+00 0.000000000000000e+00
        </DataArray>
        <DataArray type="Float64" Name="material_shear_force_2_GPs" NumberOfComponents="3" format="ascii">
0.000000000000000e+00 0.000000000000000e+00 0.000000000000000e+00
0.000000000000000e+00 0.000000000000000e+00 0.000000000000000e+00
0.000000000000000e+00 0.000000000000000e+00 0.000000000000000e+00
        </DataArray>
        <DataArray type="Float64" Name="material_shear_force_3_GPs" NumberOfComponents="3" format="ascii">
0.000000000000000e+00 0.000000000000000e+00 0.000000000000000e+00
0.000000000000000e+00 0.000000000000000e+00 0.000000000000000e+00
0.000000000000000e+00 0.000000000000000e+00 0.000000000000000e+00
        </DataArray>
        <DataArray type="Float64" Name="material_torque_GPs" NumberOfComponents="2" format="ascii">
0.000000000000000e+00 0.000000000000000e+00
0.000000000000000e+00 0.000000000000000e+00
0.000000000000000e+00 0.000000000000000e+00
        </DataArray>
        <DataArray type="Float64" Name="ref_length" format="ascii">
1.570792349466516e+01
1.570792349466517e+01
1.570792349466517e+01
        </DataArray>
        <DataArray type="Float64" Name="shear_strain_2_GPs" NumberOfComponents="3" format="ascii">
0.000000000000000e+00 0.000000000000000e+00 0.000000000000000e+00
0.000000000000000e+00 0.000000000000000e+00 0.000000000000000e+00
0.000000000000000e+00 0.000000000000000e+00 0.000000000000000e+00
        </DataArray>
        <DataArray type="Float64" Name="shear_strain_3_GPs" NumberOfComponents="3" format="ascii">
0.000000000000000e+00 0.000000000000000e+00 0.000000000000000e+00
0.000000000000000e+00 0.000000000000000e+00 0.000000000000000e+00
0.000000000000000e+00 0.000000000000000e+00 0.000000000000000e+00
        </DataArray>
        <DataArray type="Float64" Name="twist_GPs" NumberOfComponents="2" format="ascii">
0.000000000000000e+00 0.000000000000000e+00
0.000000000000000e+00 0.000000000000000e+00
0.000000000000000e+00 0.000000000000000e+00
        </DataArray>
      </CellData>

    </Piece>
  </UnstructuredGrid>
</VTKFile>
