<?xml version="1.0" ?> 
<!-- 
# vtk DataFile Version 3.0
-->
<VTKFile type="UnstructuredGrid" version="0.1" compressor="vtkZLibDataCompressor" byte_order="LittleEndian">
  <UnstructuredGrid>
    <FieldData>
      <DataArray type="Float64" Name="TIME" NumberOfTuples="1" format="ascii">
9.999999999999999e-01 
      </DataArray>
    </FieldData>

    <Piece NumberOfPoints="12" NumberOfCells="2" >
      <Points>
        <DataArray type="Float64" NumberOfComponents="3" format="ascii">
0.000000000000000e+00 0.000000000000000e+00 0.000000000000000e+00
3.136248741448742e+00 4.818625427914067e-02 1.468938783611692e-01
6.242897459194529e+00 1.850691119934930e-01 5.837832615707046e-01
9.291553990135803e+00 3.991347154584527e-01 1.306336936407588e+00
1.225382617117102e+01 6.788692069894158e-01 2.310223689650802e+00
1.510132183919861e+01 1.012758728901777e+00 3.591112308079328e+00
2.745755330227047e+01 3.321163553371968e+00 1.287817589278410e+01
2.951197689007826e+01 3.878916583977491e+00 1.518829749269863e+01
3.144921928025145e+01 4.469695795255054e+00 1.758967025560060e+01
3.326496947163561e+01 5.090756123684339e+00 2.007683115109775e+01
3.495491646307636e+01 5.739352505745037e+00 2.264431714879780e+01
3.651474925341924e+01 6.412739877916834e+00 2.528666521830848e+01
        </DataArray>
      </Points>

      <Cells>
        <DataArray type="Int32" Name="connectivity" format="ascii">
0 1 2 3 4 5 6 7 8 9 10 11 
        </DataArray>
        <DataArray type="Int32" Name="offsets" format="ascii">
6 12 
        </DataArray>
        <DataArray type="UInt8" Name="types" format="ascii">
4 4 
        </DataArray>
      </Cells>

  <PointData>
        <DataArray type="Float64" Name="base_vector_1" NumberOfComponents="3" format="ascii">
1.000000000000000e+00 -1.734723475976807e-17 2.775557561562891e-17
9.953085095102345e-01 2.981242215040245e-02 9.204450218259438e-02
9.812829808457458e-01 5.634485503981466e-02 1.841438807374003e-01
9.580697318373491e-01 7.932050567743427e-02 2.753373318607304e-01
9.259109289175783e-01 9.849968631649031e-02 3.646735026109523e-01
8.851420607797578e-01 1.136823149369000e-01 4.512204156608509e-01
6.721782565660426e-01 1.720016035709597e-01 7.201332097389025e-01
6.356566905427259e-01 1.829286496776601e-01 7.499851204493175e-01
5.976222249565702e-01 1.930170352400760e-01 7.781979827428814e-01
5.581669898657620e-01 2.022423233814283e-01 8.047034572173009e-01
5.173865568275364e-01 2.105821678870365e-01 8.294373402386358e-01
4.753797073972740e-01 2.180163673330676e-01 8.523397194603659e-01
        </DataArray>
        <DataArray type="Float64" Name="base_vector_2" NumberOfComponents="3" format="ascii">
1.734723475976807e-17 1.000000000000000e+00 -1.214306433183765e-17
-3.278140075042294e-02 9.989843361869958e-01 3.091400682324445e-02
-6.818979631090567e-02 9.959479404074774e-01 5.863319603416819e-02
-1.058557974231186e-01 9.909224891033517e-01 8.286839410253799e-02
-1.453864629217014e-01 9.839604090423562e-01 1.033667733670538e-01
-1.863693989949984e-01 9.751343303888756e-01 1.199144895968878e-01
-3.517915870487969e-01 9.300311002592209e-01 1.062300891099690e-01
-3.748953018450543e-01 9.224148185904366e-01 9.275998652046918e-02
-3.972143822075442e-01 9.143839340274288e-01 7.824803997546417e-02
-4.186947651136687e-01 9.059578996070859e-01 6.272940144722386e-02
-4.392844190994254e-01 8.971571255291957e-01 4.624166139609912e-02
-4.589334702940890e-01 8.880029297172619e-01 2.882475771596760e-02
        </DataArray>
        <DataArray type="Float64" Name="base_vector_3" NumberOfComponents="3" format="ascii">
-2.775557561562891e-17 1.214306433183765e-17 1.000000000000000e+00
-9.102939449076655e-02 -3.378632176715345e-02 9.952749036322029e-01
-1.800940398279877e-01 -7.009249110030455e-02 9.811489079185630e-01
-2.662647913056203e-01 -1.085397529400818e-01 9.577693787873365e-01
-3.486426940437788e-01 -1.487270158133757e-01 9.253802173469799e-01
-4.263683611113830e-01 -1.902350361201282e-01 8.843193154486488e-01
-6.514745357122752e-01 -3.247423608333868e-01 6.856554006196072e-01
-6.748289297464765e-01 -3.401294041565356e-01 6.549182422297803e-01
-6.964685282232340e-01 -3.558741986989983e-01 6.231253035264323e-01
-7.163409140141337e-01 -3.719386061876327e-01 5.903535958530250e-01
-7.343979506715871e-01 -3.882837141578140e-01 5.566825014037948e-01
-7.505958990287029e-01 -4.048699302102499e-01 5.221935809379896e-01
        </DataArray>
        <DataArray type="Float64" Name="displacement" NumberOfComponents="3" format="ascii">
0.000000000000000e+00 0.000000000000000e+00 0.000000000000000e+00
-4.818849786282442e-03 -1.222664050440615e-03 1.468938783611692e-01
-3.614153595182579e-02 -1.240428061469975e-02 5.837832615707046e-01
-1.192672637066803e-01 -4.481528631218351e-02 1.306336936407588e+00
-2.794952382608837e-01 -1.097261177622981e-01 2.310223689650802e+00
-5.421246648244846e-01 -2.184072115844495e-01 3.591112308079328e+00
-3.444146135224269e+00 -1.573184817112674e+00 1.287817589278410e+01
-4.361787152746555e+00 -2.033065726419597e+00 1.518829749269863e+01
-5.363178475395792e+00 -2.552790689907737e+00 1.758967025560060e+01
-6.449764747815031e+00 -3.133917487355789e+00 2.007683115109775e+01
-7.622990614647229e+00 -3.778003898542439e+00 2.264431714879780e+01
-8.884300720535428e+00 -4.486607703246377e+00 2.528666521830848e+01
        </DataArray>
  </PointData>
  <CellData>
        <DataArray type="Float64" Name="axial_strain_GPs" NumberOfComponents="3" format="ascii">
0.000000000000000e+00 1.379481872021415e-05 2.707322493955555e-05
4.320799258450414e-05 4.750009529885801e-05 5.114038316755831e-05
        </DataArray>
        <DataArray type="Float64" Name="cross_section_radius" format="ascii">
5.707319930889453e-01
5.707319930889453e-01
        </DataArray>
        <DataArray type="Float64" Name="curvature_2_GPs" NumberOfComponents="2" format="ascii">
-2.918791962626361e-02 -2.918791962626361e-02
-1.292738849302818e-02 -1.292738849302818e-02
        </DataArray>
        <DataArray type="Float64" Name="curvature_3_GPs" NumberOfComponents="2" format="ascii">
-2.052626781779907e-05 -2.052626781779907e-05
-1.605687484398179e-03 -1.605687484398179e-03
        </DataArray>
        <DataArray type="Float64" Name="element_gid" format="ascii">
0.000000000000000e+00
2.000000000000000e+00
        </DataArray>
        <DataArray type="Float64" Name="element_owner" format="ascii">
0.000000000000000e+00
0.000000000000000e+00
        </DataArray>
        <DataArray type="Float64" Name="material_axial_force_GPs" NumberOfComponents="3" format="ascii">
0.000000000000000e+00 1.379481872021415e+02 2.707322493955555e+02
4.320799258450414e+02 4.750009529885801e+02 5.114038316755831e+02
        </DataArray>
        <DataArray type="Float64" Name="material_bending_moment_2_GPs" NumberOfComponents="2" format="ascii">
-2.432326635521967e+04 -2.432326635521967e+04
-1.077282374419015e+04 -1.077282374419015e+04
        </DataArray>
        <DataArray type="Float64" Name="material_bending_moment_3_GPs" NumberOfComponents="2" format="ascii">
-1.710522318149922e+01 -1.710522318149922e+01
-1.338072903665149e+03 -1.338072903665149e+03
        </DataArray>
        <DataArray type="Float64" Name="material_shear_force_2_GPs" NumberOfComponents="3" format="ascii">
7.950087347705582e-11 4.272178822683990e+01 7.194869375790984e+01
6.373805346565389e+01 4.236735835277603e+01 1.729485463043979e+01
        </DataArray>
        <DataArray type="Float64" Name="material_shear_force_3_GPs" NumberOfComponents="3" format="ascii">
5.999999999999981e+02 5.823616972798948e+02 5.305915892689824e+02
4.113932403714456e+02 3.641141326641192e+02 3.133161485646685e+02
        </DataArray>
        <DataArray type="Float64" Name="material_torque_GPs" NumberOfComponents="2" format="ascii">
7.251678265325370e+03 7.251678265325370e+03
1.975443802082800e+03 1.975443802082801e+03
        </DataArray>
        <DataArray type="Float64" Name="ref_length" format="ascii">
1.570792349466516e+01
1.570792349466515e+01
        </DataArray>
        <DataArray type="Float64" Name="shear_strain_2_GPs" NumberOfComponents="3" format="ascii">
1.908020963449339e-17 1.025322917444157e-05 1.726768650189836e-05
1.529713283175693e-05 1.016816600466625e-05 4.150765111305549e-06
        </DataArray>
        <DataArray type="Float64" Name="shear_strain_3_GPs" NumberOfComponents="3" format="ascii">
1.439999999999995e-04 1.397668073471747e-04 1.273419814245558e-04
9.873437768914695e-05 8.738739183938860e-05 7.519587565552044e-05
        </DataArray>
        <DataArray type="Float64" Name="twist_GPs" NumberOfComponents="2" format="ascii">
1.031533181411859e-02 1.031533181411859e-02
2.810019633119203e-03 2.810019633119204e-03
        </DataArray>
      </CellData>

    </Piece>
  </UnstructuredGrid>
</VTKFile>
