<?xml version="1.0" ?> 
<!-- 
# vtk DataFile Version 3.0
-->
<VTKFile type="UnstructuredGrid" version="0.1" compressor="vtkZLibDataCompressor" byte_order="LittleEndian">
  <UnstructuredGrid>
    <FieldData>
      <DataArray type="Float64" Name="TIME" NumberOfTuples="1" format="ascii">
100
      </DataArray>
    </FieldData>

    <Piece NumberOfPoints="256" NumberOfCells="32" >
      <Points>
        <DataArray type="Float64" NumberOfComponents="3" format="ascii">
0.000000000000000e+00 0.000000000000000e+00 0.000000000000000e+00
6.000000000000000e+00 5.500000000000000e+00 0.000000000000000e+00
6.000000000000000e+00 1.056250000000000e+01 0.000000000000000e+00
0.000000000000000e+00 5.500000000000000e+00 0.000000000000000e+00
0.000000000000000e+00 0.000000000000000e+00 1.000000000000000e+00
6.000000000000000e+00 5.500000000000000e+00 1.000000000000000e+00
6.000000000000000e+00 1.056250000000000e+01 1.000000000000000e+00
0.000000000000000e+00 5.500000000000000e+00 1.000000000000000e+00
6.000000000000000e+00 5.500000000000000e+00 0.000000000000000e+00
1.200000000000000e+01 1.100000000000000e+01 0.000000000000000e+00
1.200000000000000e+01 1.562500000000000e+01 0.000000000000000e+00
6.000000000000000e+00 1.056250000000000e+01 0.000000000000000e+00
6.000000000000000e+00 5.500000000000000e+00 1.000000000000000e+00
1.200000000000000e+01 1.100000000000000e+01 1.000000000000000e+00
1.200000000000000e+01 1.562500000000000e+01 1.000000000000000e+00
6.000000000000000e+00 1.056250000000000e+01 1.000000000000000e+00
1.200000000000000e+01 1.100000000000000e+01 0.000000000000000e+00
1.800000000000000e+01 1.650000000000000e+01 0.000000000000000e+00
1.800000000000000e+01 2.068750000000000e+01 0.000000000000000e+00
1.200000000000000e+01 1.562500000000000e+01 0.000000000000000e+00
1.200000000000000e+01 1.100000000000000e+01 1.000000000000000e+00
1.800000000000000e+01 1.650000000000000e+01 1.000000000000000e+00
1.800000000000000e+01 2.068750000000000e+01 1.000000000000000e+00
1.200000000000000e+01 1.562500000000000e+01 1.000000000000000e+00
1.800000000000000e+01 1.650000000000000e+01 0.000000000000000e+00
2.400000000000000e+01 2.200000000000000e+01 0.000000000000000e+00
2.400000000000000e+01 2.575000000000000e+01 0.000000000000000e+00
1.800000000000000e+01 2.068750000000000e+01 0.000000000000000e+00
1.800000000000000e+01 1.650000000000000e+01 1.000000000000000e+00
2.400000000000000e+01 2.200000000000000e+01 1.000000000000000e+00
2.400000000000000e+01 2.575000000000000e+01 1.000000000000000e+00
1.800000000000000e+01 2.068750000000000e+01 1.000000000000000e+00
2.400000000000000e+01 2.200000000000000e+01 0.000000000000000e+00
3.000000000000000e+01 2.750000000000000e+01 0.000000000000000e+00
3.000000000000000e+01 3.081250000000000e+01 0.000000000000000e+00
2.400000000000000e+01 2.575000000000000e+01 0.000000000000000e+00
2.400000000000000e+01 2.200000000000000e+01 1.000000000000000e+00
3.000000000000000e+01 2.750000000000000e+01 1.000000000000000e+00
3.000000000000000e+01 3.081250000000000e+01 1.000000000000000e+00
2.400000000000000e+01 2.575000000000000e+01 1.000000000000000e+00
3.000000000000000e+01 2.750000000000000e+01 0.000000000000000e+00
3.600000000000000e+01 3.300000000000000e+01 0.000000000000000e+00
3.600000000000000e+01 3.587500000000000e+01 0.000000000000000e+00
3.000000000000000e+01 3.081250000000000e+01 0.000000000000000e+00
3.000000000000000e+01 2.750000000000000e+01 1.000000000000000e+00
3.600000000000000e+01 3.300000000000000e+01 1.000000000000000e+00
3.600000000000000e+01 3.587500000000000e+01 1.000000000000000e+00
3.000000000000000e+01 3.081250000000000e+01 1.000000000000000e+00
3.600000000000000e+01 3.300000000000000e+01 0.000000000000000e+00
4.200000000000000e+01 3.850000000000000e+01 0.000000000000000e+00
4.200000000000000e+01 4.093750000000000e+01 0.000000000000000e+00
3.600000000000000e+01 3.587500000000000e+01 0.000000000000000e+00
3.600000000000000e+01 3.300000000000000e+01 1.000000000000000e+00
4.200000000000000e+01 3.850000000000000e+01 1.000000000000000e+00
4.200000000000000e+01 4.093750000000000e+01 1.000000000000000e+00
3.600000000000000e+01 3.587500000000000e+01 1.000000000000000e+00
4.200000000000000e+01 3.850000000000000e+01 0.000000000000000e+00
4.800000000000000e+01 4.400000000000000e+01 0.000000000000000e+00
4.800000000000000e+01 4.600000000000000e+01 0.000000000000000e+00
4.200000000000000e+01 4.093750000000000e+01 0.000000000000000e+00
4.200000000000000e+01 3.850000000000000e+01 1.000000000000000e+00
4.800000000000000e+01 4.400000000000000e+01 1.000000000000000e+00
4.800000000000000e+01 4.600000000000000e+01 1.000000000000000e+00
4.200000000000000e+01 4.093750000000000e+01 1.000000000000000e+00
0.000000000000000e+00 5.500000000000000e+00 0.000000000000000e+00
6.000000000000000e+00 1.056250000000000e+01 0.000000000000000e+00
6.000000000000000e+00 1.562500000000000e+01 0.000000000000000e+00
0.000000000000000e+00 1.100000000000000e+01 0.000000000000000e+00
0.000000000000000e+00 5.500000000000000e+00 1.000000000000000e+00
6.000000000000000e+00 1.056250000000000e+01 1.000000000000000e+00
6.000000000000000e+00 1.562500000000000e+01 1.000000000000000e+00
0.000000000000000e+00 1.100000000000000e+01 1.000000000000000e+00
6.000000000000000e+00 1.056250000000000e+01 0.000000000000000e+00
1.200000000000000e+01 1.562500000000000e+01 0.000000000000000e+00
1.200000000000000e+01 2.025000000000000e+01 0.000000000000000e+00
6.000000000000000e+00 1.562500000000000e+01 0.000000000000000e+00
6.000000000000000e+00 1.056250000000000e+01 1.000000000000000e+00
1.200000000000000e+01 1.562500000000000e+01 1.000000000000000e+00
1.200000000000000e+01 2.025000000000000e+01 1.000000000000000e+00
6.000000000000000e+00 1.562500000000000e+01 1.000000000000000e+00
1.200000000000000e+01 1.562500000000000e+01 0.000000000000000e+00
1.800000000000000e+01 2.068750000000000e+01 0.000000000000000e+00
1.800000000000000e+01 2.487500000000000e+01 0.000000000000000e+00
1.200000000000000e+01 2.025000000000000e+01 0.000000000000000e+00
1.200000000000000e+01 1.562500000000000e+01 1.000000000000000e+00
1.800000000000000e+01 2.068750000000000e+01 1.000000000000000e+00
1.800000000000000e+01 2.487500000000000e+01 1.000000000000000e+00
1.200000000000000e+01 2.025000000000000e+01 1.000000000000000e+00
1.800000000000000e+01 2.068750000000000e+01 0.000000000000000e+00
2.400000000000000e+01 2.575000000000000e+01 0.000000000000000e+00
2.400000000000000e+01 2.950000000000000e+01 0.000000000000000e+00
1.800000000000000e+01 2.487500000000000e+01 0.000000000000000e+00
1.800000000000000e+01 2.068750000000000e+01 1.000000000000000e+00
2.400000000000000e+01 2.575000000000000e+01 1.000000000000000e+00
2.400000000000000e+01 2.950000000000000e+01 1.000000000000000e+00
1.800000000000000e+01 2.487500000000000e+01 1.000000000000000e+00
2.400000000000000e+01 2.575000000000000e+01 0.000000000000000e+00
3.000000000000000e+01 3.081250000000000e+01 0.000000000000000e+00
3.000000000000000e+01 3.412500000000000e+01 0.000000000000000e+00
2.400000000000000e+01 2.950000000000000e+01 0.000000000000000e+00
2.400000000000000e+01 2.575000000000000e+01 1.000000000000000e+00
3.000000000000000e+01 3.081250000000000e+01 1.000000000000000e+00
3.000000000000000e+01 3.412500000000000e+01 1.000000000000000e+00
2.400000000000000e+01 2.950000000000000e+01 1.000000000000000e+00
3.000000000000000e+01 3.081250000000000e+01 0.000000000000000e+00
3.600000000000000e+01 3.587500000000000e+01 0.000000000000000e+00
3.600000000000000e+01 3.875000000000000e+01 0.000000000000000e+00
3.000000000000000e+01 3.412500000000000e+01 0.000000000000000e+00
3.000000000000000e+01 3.081250000000000e+01 1.000000000000000e+00
3.600000000000000e+01 3.587500000000000e+01 1.000000000000000e+00
3.600000000000000e+01 3.875000000000000e+01 1.000000000000000e+00
3.000000000000000e+01 3.412500000000000e+01 1.000000000000000e+00
3.600000000000000e+01 3.587500000000000e+01 0.000000000000000e+00
4.200000000000000e+01 4.093750000000000e+01 0.000000000000000e+00
4.200000000000000e+01 4.337500000000000e+01 0.000000000000000e+00
3.600000000000000e+01 3.875000000000000e+01 0.000000000000000e+00
3.600000000000000e+01 3.587500000000000e+01 1.000000000000000e+00
4.200000000000000e+01 4.093750000000000e+01 1.000000000000000e+00
4.200000000000000e+01 4.337500000000000e+01 1.000000000000000e+00
3.600000000000000e+01 3.875000000000000e+01 1.000000000000000e+00
4.200000000000000e+01 4.093750000000000e+01 0.000000000000000e+00
4.800000000000000e+01 4.600000000000000e+01 0.000000000000000e+00
4.800000000000000e+01 4.800000000000000e+01 0.000000000000000e+00
4.200000000000000e+01 4.337500000000000e+01 0.000000000000000e+00
4.200000000000000e+01 4.093750000000000e+01 1.000000000000000e+00
4.800000000000000e+01 4.600000000000000e+01 1.000000000000000e+00
4.800000000000000e+01 4.800000000000000e+01 1.000000000000000e+00
4.200000000000000e+01 4.337500000000000e+01 1.000000000000000e+00
0.000000000000000e+00 1.100000000000000e+01 0.000000000000000e+00
6.000000000000000e+00 1.562500000000000e+01 0.000000000000000e+00
6.000000000000000e+00 2.068750000000000e+01 0.000000000000000e+00
0.000000000000000e+00 1.650000000000000e+01 0.000000000000000e+00
0.000000000000000e+00 1.100000000000000e+01 1.000000000000000e+00
6.000000000000000e+00 1.562500000000000e+01 1.000000000000000e+00
6.000000000000000e+00 2.068750000000000e+01 1.000000000000000e+00
0.000000000000000e+00 1.650000000000000e+01 1.000000000000000e+00
6.000000000000000e+00 1.562500000000000e+01 0.000000000000000e+00
1.200000000000000e+01 2.025000000000000e+01 0.000000000000000e+00
1.200000000000000e+01 2.487500000000000e+01 0.000000000000000e+00
6.000000000000000e+00 2.068750000000000e+01 0.000000000000000e+00
6.000000000000000e+00 1.562500000000000e+01 1.000000000000000e+00
1.200000000000000e+01 2.025000000000000e+01 1.000000000000000e+00
1.200000000000000e+01 2.487500000000000e+01 1.000000000000000e+00
6.000000000000000e+00 2.068750000000000e+01 1.000000000000000e+00
1.200000000000000e+01 2.025000000000000e+01 0.000000000000000e+00
1.800000000000000e+01 2.487500000000000e+01 0.000000000000000e+00
1.800000000000000e+01 2.906250000000000e+01 0.000000000000000e+00
1.200000000000000e+01 2.487500000000000e+01 0.000000000000000e+00
1.200000000000000e+01 2.025000000000000e+01 1.000000000000000e+00
1.800000000000000e+01 2.487500000000000e+01 1.000000000000000e+00
1.800000000000000e+01 2.906250000000000e+01 1.000000000000000e+00
1.200000000000000e+01 2.487500000000000e+01 1.000000000000000e+00
1.800000000000000e+01 2.487500000000000e+01 0.000000000000000e+00
2.400000000000000e+01 2.950000000000000e+01 0.000000000000000e+00
2.400000000000000e+01 3.325000000000000e+01 0.000000000000000e+00
1.800000000000000e+01 2.906250000000000e+01 0.000000000000000e+00
1.800000000000000e+01 2.487500000000000e+01 1.000000000000000e+00
2.400000000000000e+01 2.950000000000000e+01 1.000000000000000e+00
2.400000000000000e+01 3.325000000000000e+01 1.000000000000000e+00
1.800000000000000e+01 2.906250000000000e+01 1.000000000000000e+00
2.400000000000000e+01 2.950000000000000e+01 0.000000000000000e+00
3.000000000000000e+01 3.412500000000000e+01 0.000000000000000e+00
3.000000000000000e+01 3.743750000000000e+01 0.000000000000000e+00
2.400000000000000e+01 3.325000000000000e+01 0.000000000000000e+00
2.400000000000000e+01 2.950000000000000e+01 1.000000000000000e+00
3.000000000000000e+01 3.412500000000000e+01 1.000000000000000e+00
3.000000000000000e+01 3.743750000000000e+01 1.000000000000000e+00
2.400000000000000e+01 3.325000000000000e+01 1.000000000000000e+00
3.000000000000000e+01 3.412500000000000e+01 0.000000000000000e+00
3.600000000000000e+01 3.875000000000000e+01 0.000000000000000e+00
3.600000000000000e+01 4.162500000000000e+01 0.000000000000000e+00
3.000000000000000e+01 3.743750000000000e+01 0.000000000000000e+00
3.000000000000000e+01 3.412500000000000e+01 1.000000000000000e+00
3.600000000000000e+01 3.875000000000000e+01 1.000000000000000e+00
3.600000000000000e+01 4.162500000000000e+01 1.000000000000000e+00
3.000000000000000e+01 3.743750000000000e+01 1.000000000000000e+00
3.600000000000000e+01 3.875000000000000e+01 0.000000000000000e+00
4.200000000000000e+01 4.337500000000000e+01 0.000000000000000e+00
4.200000000000000e+01 4.581250000000000e+01 0.000000000000000e+00
3.600000000000000e+01 4.162500000000000e+01 0.000000000000000e+00
3.600000000000000e+01 3.875000000000000e+01 1.000000000000000e+00
4.200000000000000e+01 4.337500000000000e+01 1.000000000000000e+00
4.200000000000000e+01 4.581250000000000e+01 1.000000000000000e+00
3.600000000000000e+01 4.162500000000000e+01 1.000000000000000e+00
4.200000000000000e+01 4.337500000000000e+01 0.000000000000000e+00
4.800000000000000e+01 4.800000000000000e+01 0.000000000000000e+00
4.800000000000000e+01 5.000000000000000e+01 0.000000000000000e+00
4.200000000000000e+01 4.581250000000000e+01 0.000000000000000e+00
4.200000000000000e+01 4.337500000000000e+01 1.000000000000000e+00
4.800000000000000e+01 4.800000000000000e+01 1.000000000000000e+00
4.800000000000000e+01 5.000000000000000e+01 1.000000000000000e+00
4.200000000000000e+01 4.581250000000000e+01 1.000000000000000e+00
0.000000000000000e+00 1.650000000000000e+01 0.000000000000000e+00
6.000000000000000e+00 2.068750000000000e+01 0.000000000000000e+00
6.000000000000000e+00 2.575000000000000e+01 0.000000000000000e+00
0.000000000000000e+00 2.200000000000000e+01 0.000000000000000e+00
0.000000000000000e+00 1.650000000000000e+01 1.000000000000000e+00
6.000000000000000e+00 2.068750000000000e+01 1.000000000000000e+00
6.000000000000000e+00 2.575000000000000e+01 1.000000000000000e+00
0.000000000000000e+00 2.200000000000000e+01 1.000000000000000e+00
6.000000000000000e+00 2.068750000000000e+01 0.000000000000000e+00
1.200000000000000e+01 2.487500000000000e+01 0.000000000000000e+00
1.200000000000000e+01 2.950000000000000e+01 0.000000000000000e+00
6.000000000000000e+00 2.575000000000000e+01 0.000000000000000e+00
6.000000000000000e+00 2.068750000000000e+01 1.000000000000000e+00
1.200000000000000e+01 2.487500000000000e+01 1.000000000000000e+00
1.200000000000000e+01 2.950000000000000e+01 1.000000000000000e+00
6.000000000000000e+00 2.575000000000000e+01 1.000000000000000e+00
1.200000000000000e+01 2.487500000000000e+01 0.000000000000000e+00
1.800000000000000e+01 2.906250000000000e+01 0.000000000000000e+00
1.800000000000000e+01 3.325000000000000e+01 0.000000000000000e+00
1.200000000000000e+01 2.950000000000000e+01 0.000000000000000e+00
1.200000000000000e+01 2.487500000000000e+01 1.000000000000000e+00
1.800000000000000e+01 2.906250000000000e+01 1.000000000000000e+00
1.800000000000000e+01 3.325000000000000e+01 1.000000000000000e+00
1.200000000000000e+01 2.950000000000000e+01 1.000000000000000e+00
1.800000000000000e+01 2.906250000000000e+01 0.000000000000000e+00
2.400000000000000e+01 3.325000000000000e+01 0.000000000000000e+00
2.400000000000000e+01 3.700000000000000e+01 0.000000000000000e+00
1.800000000000000e+01 3.325000000000000e+01 0.000000000000000e+00
1.800000000000000e+01 2.906250000000000e+01 1.000000000000000e+00
2.400000000000000e+01 3.325000000000000e+01 1.000000000000000e+00
2.400000000000000e+01 3.700000000000000e+01 1.000000000000000e+00
1.800000000000000e+01 3.325000000000000e+01 1.000000000000000e+00
2.400000000000000e+01 3.325000000000000e+01 0.000000000000000e+00
3.000000000000000e+01 3.743750000000000e+01 0.000000000000000e+00
3.000000000000000e+01 4.075000000000000e+01 0.000000000000000e+00
2.400000000000000e+01 3.700000000000000e+01 0.000000000000000e+00
2.400000000000000e+01 3.325000000000000e+01 1.000000000000000e+00
3.000000000000000e+01 3.743750000000000e+01 1.000000000000000e+00
3.000000000000000e+01 4.075000000000000e+01 1.000000000000000e+00
2.400000000000000e+01 3.700000000000000e+01 1.000000000000000e+00
3.000000000000000e+01 3.743750000000000e+01 0.000000000000000e+00
3.600000000000000e+01 4.162500000000000e+01 0.000000000000000e+00
3.600000000000000e+01 4.450000000000000e+01 0.000000000000000e+00
3.000000000000000e+01 4.075000000000000e+01 0.000000000000000e+00
3.000000000000000e+01 3.743750000000000e+01 1.000000000000000e+00
3.600000000000000e+01 4.162500000000000e+01 1.000000000000000e+00
3.600000000000000e+01 4.450000000000000e+01 1.000000000000000e+00
3.000000000000000e+01 4.075000000000000e+01 1.000000000000000e+00
3.600000000000000e+01 4.162500000000000e+01 0.000000000000000e+00
4.200000000000000e+01 4.581250000000000e+01 0.000000000000000e+00
4.200000000000000e+01 4.825000000000000e+01 0.000000000000000e+00
3.600000000000000e+01 4.450000000000000e+01 0.000000000000000e+00
3.600000000000000e+01 4.162500000000000e+01 1.000000000000000e+00
4.200000000000000e+01 4.581250000000000e+01 1.000000000000000e+00
4.200000000000000e+01 4.825000000000000e+01 1.000000000000000e+00
3.600000000000000e+01 4.450000000000000e+01 1.000000000000000e+00
4.200000000000000e+01 4.581250000000000e+01 0.000000000000000e+00
4.800000000000000e+01 5.000000000000000e+01 0.000000000000000e+00
4.800000000000000e+01 5.200000000000000e+01 0.000000000000000e+00
4.200000000000000e+01 4.825000000000000e+01 0.000000000000000e+00
4.200000000000000e+01 4.581250000000000e+01 1.000000000000000e+00
4.800000000000000e+01 5.000000000000000e+01 1.000000000000000e+00
4.800000000000000e+01 5.200000000000000e+01 1.000000000000000e+00
4.200000000000000e+01 4.825000000000000e+01 1.000000000000000e+00
        </DataArray>
      </Points>

      <Cells>
        <DataArray type="Int32" Name="connectivity" format="ascii">
0 1 2 3 4 5 6 7 8 9 10 11 12 13 14 15 16 17 18 19 20 21 22 23 24 25 26 27 28 29 30 31 32 33 34 35 36 37 38 39 40 41 42 43 44 45 46 47 48 49 50 51 52 53 54 55 56 57 58 59 60 61 62 63 64 65 66 67 68 69 70 71 72 73 74 75 76 77 78 79 80 81 82 83 84 85 86 87 88 89 90 91 92 93 94 95 96 97 98 99 100 101 102 103 104 105 106 107 108 109 110 111 112 113 114 115 116 117 118 119 120 121 122 123 124 125 126 127 128 129 130 131 132 133 134 135 136 137 138 139 140 141 142 143 144 145 146 147 148 149 150 151 152 153 154 155 156 157 158 159 160 161 162 163 164 165 166 167 168 169 170 171 172 173 174 175 176 177 178 179 180 181 182 183 184 185 186 187 188 189 190 191 192 193 194 195 196 197 198 199 200 201 202 203 204 205 206 207 208 209 210 211 212 213 214 215 216 217 218 219 220 221 222 223 224 225 226 227 228 229 230 231 232 233 234 235 236 237 238 239 240 241 242 243 244 245 246 247 248 249 250 251 252 253 254 255 
        </DataArray>
        <DataArray type="Int32" Name="offsets" format="ascii">
8 16 24 32 40 48 56 64 72 80 88 96 104 112 120 128 136 144 152 160 168 176 184 192 200 208 216 224 232 240 248 256 
        </DataArray>
        <DataArray type="UInt8" Name="types" format="ascii">
12 12 12 12 12 12 12 12 12 12 12 12 12 12 12 12 12 12 12 12 12 12 12 12 12 12 12 12 12 12 12 12 
        </DataArray>
      </Cells>

  <PointData>
        <DataArray type="Float64" Name="displacement" NumberOfComponents="3" format="ascii">
0.000000000000000e+00 0.000000000000000e+00 0.000000000000000e+00
7.960453392294351e-03 3.748095222814885e-01 0.000000000000000e+00
2.620884025833338e-02 3.620897739792942e-01 0.000000000000000e+00
0.000000000000000e+00 0.000000000000000e+00 0.000000000000000e+00
0.000000000000000e+00 0.000000000000000e+00 0.000000000000000e+00
7.960453392256211e-03 3.748095222815712e-01 0.000000000000000e+00
2.620884025835561e-02 3.620897739792543e-01 0.000000000000000e+00
0.000000000000000e+00 0.000000000000000e+00 0.000000000000000e+00
7.960453392294351e-03 3.748095222814885e-01 0.000000000000000e+00
6.372465096282404e-02 7.120178404492247e-01 0.000000000000000e+00
1.196983237405229e-01 6.743539171546939e-01 0.000000000000000e+00
2.620884025833338e-02 3.620897739792942e-01 0.000000000000000e+00
7.960453392256211e-03 3.748095222815712e-01 0.000000000000000e+00
6.372465096278279e-02 7.120178404492236e-01 0.000000000000000e+00
1.196983237404876e-01 6.743539171547136e-01 0.000000000000000e+00
2.620884025835561e-02 3.620897739792543e-01 0.000000000000000e+00
6.372465096282404e-02 7.120178404492247e-01 0.000000000000000e+00
1.861738927721437e-01 1.097110607836305e+00 0.000000000000000e+00
2.556032030007738e-01 1.065193445009495e+00 0.000000000000000e+00
1.196983237405229e-01 6.743539171546939e-01 0.000000000000000e+00
6.372465096278279e-02 7.120178404492236e-01 0.000000000000000e+00
1.861738927721711e-01 1.097110607836268e+00 0.000000000000000e+00
2.556032030007956e-01 1.065193445009522e+00 0.000000000000000e+00
1.196983237404876e-01 6.743539171547136e-01 0.000000000000000e+00
1.861738927721437e-01 1.097110607836305e+00 0.000000000000000e+00
3.056453485345407e-01 1.692660713724416e+00 0.000000000000000e+00
2.891634410789878e-01 1.676075808841526e+00 0.000000000000000e+00
2.556032030007738e-01 1.065193445009495e+00 0.000000000000000e+00
1.861738927721711e-01 1.097110607836268e+00 0.000000000000000e+00
3.056453485346314e-01 1.692660713724361e+00 0.000000000000000e+00
2.891634410788874e-01 1.676075808841601e+00 0.000000000000000e+00
2.556032030007956e-01 1.065193445009522e+00 0.000000000000000e+00
3.056453485345407e-01 1.692660713724416e+00 0.000000000000000e+00
2.516382882888432e-01 2.571918521815539e+00 0.000000000000000e+00
1.211610177813574e-01 2.567922856289228e+00 0.000000000000000e+00
2.891634410789878e-01 1.676075808841526e+00 0.000000000000000e+00
3.056453485346314e-01 1.692660713724361e+00 0.000000000000000e+00
2.516382882887752e-01 2.571918521815624e+00 0.000000000000000e+00
1.211610177814286e-01 2.567922856289108e+00 0.000000000000000e+00
2.891634410788874e-01 1.676075808841601e+00 0.000000000000000e+00
2.516382882888432e-01 2.571918521815539e+00 0.000000000000000e+00
-7.006847825287464e-02 3.727850746199695e+00 0.000000000000000e+00
-3.243979809637973e-01 3.713951849267315e+00 0.000000000000000e+00
1.211610177813574e-01 2.567922856289228e+00 0.000000000000000e+00
2.516382882887752e-01 2.571918521815624e+00 0.000000000000000e+00
-7.006847825289948e-02 3.727850746199634e+00 0.000000000000000e+00
-3.243979809637745e-01 3.713951849267460e+00 0.000000000000000e+00
1.211610177814286e-01 2.567922856289108e+00 0.000000000000000e+00
-7.006847825287464e-02 3.727850746199695e+00 0.000000000000000e+00
-7.478409811168790e-01 5.110662265107168e+00 0.000000000000000e+00
-1.100235217280818e+00 5.090540264194549e+00 0.000000000000000e+00
-3.243979809637973e-01 3.713951849267315e+00 0.000000000000000e+00
-7.006847825289948e-02 3.727850746199634e+00 0.000000000000000e+00
-7.478409811169705e-01 5.110662265107319e+00 0.000000000000000e+00
-1.100235217280894e+00 5.090540264194424e+00 0.000000000000000e+00
-3.243979809637745e-01 3.713951849267460e+00 0.000000000000000e+00
-7.478409811168790e-01 5.110662265107168e+00 0.000000000000000e+00
-1.826769976865716e+00 6.634603237538177e+00 0.000000000000000e+00
-2.204215398257432e+00 6.628627140978487e+00 0.000000000000000e+00
-1.100235217280818e+00 5.090540264194549e+00 0.000000000000000e+00
-7.478409811169705e-01 5.110662265107319e+00 0.000000000000000e+00
-1.826769976865719e+00 6.634603237538103e+00 0.000000000000000e+00
-2.204215398257272e+00 6.628627140978502e+00 0.000000000000000e+00
-1.100235217280894e+00 5.090540264194424e+00 0.000000000000000e+00
0.000000000000000e+00 0.000000000000000e+00 0.000000000000000e+00
2.620884025833338e-02 3.620897739792942e-01 0.000000000000000e+00
4.174011924177389e-02 3.161023927812165e-01 0.000000000000000e+00
0.000000000000000e+00 0.000000000000000e+00 0.000000000000000e+00
0.000000000000000e+00 0.000000000000000e+00 0.000000000000000e+00
2.620884025835561e-02 3.620897739792543e-01 0.000000000000000e+00
4.174011924175806e-02 3.161023927812656e-01 0.000000000000000e+00
0.000000000000000e+00 0.000000000000000e+00 0.000000000000000e+00
2.620884025833338e-02 3.620897739792942e-01 0.000000000000000e+00
1.196983237405229e-01 6.743539171546939e-01 0.000000000000000e+00
1.610809373525184e-01 5.995953774100775e-01 0.000000000000000e+00
4.174011924177389e-02 3.161023927812165e-01 0.000000000000000e+00
2.620884025835561e-02 3.620897739792543e-01 0.000000000000000e+00
1.196983237404876e-01 6.743539171547136e-01 0.000000000000000e+00
1.610809373525071e-01 5.995953774100486e-01 0.000000000000000e+00
4.174011924175806e-02 3.161023927812656e-01 0.000000000000000e+00
1.196983237405229e-01 6.743539171546939e-01 0.000000000000000e+00
2.556032030007738e-01 1.065193445009495e+00 0.000000000000000e+00
2.507875907198074e-01 1.008827525855168e+00 0.000000000000000e+00
1.610809373525184e-01 5.995953774100775e-01 0.000000000000000e+00
1.196983237404876e-01 6.743539171547136e-01 0.000000000000000e+00
2.556032030007956e-01 1.065193445009522e+00 0.000000000000000e+00
2.507875907198206e-01 1.008827525855193e+00 0.000000000000000e+00
1.610809373525071e-01 5.995953774100486e-01 0.000000000000000e+00
2.556032030007738e-01 1.065193445009495e+00 0.000000000000000e+00
2.891634410789878e-01 1.676075808841526e+00 0.000000000000000e+00
1.965880977943719e-01 1.657275644500513e+00 0.000000000000000e+00
2.507875907198074e-01 1.008827525855168e+00 0.000000000000000e+00
2.556032030007956e-01 1.065193445009522e+00 0.000000000000000e+00
2.891634410788874e-01 1.676075808841601e+00 0.000000000000000e+00
1.965880977943154e-01 1.657275644500519e+00 0.000000000000000e+00
2.507875907198206e-01 1.008827525855193e+00 0.000000000000000e+00
2.891634410789878e-01 1.676075808841526e+00 0.000000000000000e+00
1.211610177813574e-01 2.567922856289228e+00 0.000000000000000e+00
-9.172282916323288e-02 2.562150255295891e+00 0.000000000000000e+00
1.965880977943719e-01 1.657275644500513e+00 0.000000000000000e+00
2.891634410788874e-01 1.676075808841601e+00 0.000000000000000e+00
1.211610177814286e-01 2.567922856289108e+00 0.000000000000000e+00
-9.172282916328545e-02 2.562150255295958e+00 0.000000000000000e+00
1.965880977943154e-01 1.657275644500519e+00 0.000000000000000e+00
1.211610177813574e-01 2.567922856289228e+00 0.000000000000000e+00
-3.243979809637973e-01 3.713951849267315e+00 0.000000000000000e+00
-6.417376696166761e-01 3.702711128966283e+00 0.000000000000000e+00
-9.172282916323288e-02 2.562150255295891e+00 0.000000000000000e+00
1.211610177814286e-01 2.567922856289108e+00 0.000000000000000e+00
-3.243979809637745e-01 3.713951849267460e+00 0.000000000000000e+00
-6.417376696164985e-01 3.702711128966108e+00 0.000000000000000e+00
-9.172282916328545e-02 2.562150255295958e+00 0.000000000000000e+00
-3.243979809637973e-01 3.713951849267315e+00 0.000000000000000e+00
-1.100235217280818e+00 5.090540264194549e+00 0.000000000000000e+00
-1.483376061922830e+00 5.089488208188238e+00 0.000000000000000e+00
-6.417376696166761e-01 3.702711128966283e+00 0.000000000000000e+00
-3.243979809637745e-01 3.713951849267460e+00 0.000000000000000e+00
-1.100235217280894e+00 5.090540264194424e+00 0.000000000000000e+00
-1.483376061922953e+00 5.089488208188386e+00 0.000000000000000e+00
-6.417376696164985e-01 3.702711128966108e+00 0.000000000000000e+00
-1.100235217280818e+00 5.090540264194549e+00 0.000000000000000e+00
-2.204215398257432e+00 6.628627140978487e+00 0.000000000000000e+00
-2.575631774028447e+00 6.640479411038222e+00 0.000000000000000e+00
-1.483376061922830e+00 5.089488208188238e+00 0.000000000000000e+00
-1.100235217280894e+00 5.090540264194424e+00 0.000000000000000e+00
-2.204215398257272e+00 6.628627140978502e+00 0.000000000000000e+00
-2.575631774028550e+00 6.640479411038263e+00 0.000000000000000e+00
-1.483376061922953e+00 5.089488208188386e+00 0.000000000000000e+00
0.000000000000000e+00 0.000000000000000e+00 0.000000000000000e+00
4.174011924177389e-02 3.161023927812165e-01 0.000000000000000e+00
5.523200099346270e-02 2.420646809928776e-01 0.000000000000000e+00
0.000000000000000e+00 0.000000000000000e+00 0.000000000000000e+00
0.000000000000000e+00 0.000000000000000e+00 0.000000000000000e+00
4.174011924175806e-02 3.161023927812656e-01 0.000000000000000e+00
5.523200099353598e-02 2.420646809927921e-01 0.000000000000000e+00
0.000000000000000e+00 0.000000000000000e+00 0.000000000000000e+00
4.174011924177389e-02 3.161023927812165e-01 0.000000000000000e+00
1.610809373525184e-01 5.995953774100775e-01 0.000000000000000e+00
1.550917421921412e-01 5.057118244246690e-01 0.000000000000000e+00
5.523200099346270e-02 2.420646809928776e-01 0.000000000000000e+00
4.174011924175806e-02 3.161023927812656e-01 0.000000000000000e+00
1.610809373525071e-01 5.995953774100486e-01 0.000000000000000e+00
1.550917421921334e-01 5.057118244246873e-01 0.000000000000000e+00
5.523200099353598e-02 2.420646809927921e-01 0.000000000000000e+00
1.610809373525184e-01 5.995953774100775e-01 0.000000000000000e+00
2.507875907198074e-01 1.008827525855168e+00 0.000000000000000e+00
1.854357940952527e-01 9.586001257505750e-01 0.000000000000000e+00
1.550917421921412e-01 5.057118244246690e-01 0.000000000000000e+00
1.610809373525071e-01 5.995953774100486e-01 0.000000000000000e+00
2.507875907198206e-01 1.008827525855193e+00 0.000000000000000e+00
1.854357940952672e-01 9.586001257506046e-01 0.000000000000000e+00
1.550917421921334e-01 5.057118244246873e-01 0.000000000000000e+00
2.507875907198074e-01 1.008827525855168e+00 0.000000000000000e+00
1.965880977943719e-01 1.657275644500513e+00 0.000000000000000e+00
1.398100670329929e-02 1.646001134286489e+00 0.000000000000000e+00
1.854357940952527e-01 9.586001257505750e-01 0.000000000000000e+00
2.507875907198206e-01 1.008827525855193e+00 0.000000000000000e+00
1.965880977943154e-01 1.657275644500519e+00 0.000000000000000e+00
1.398100670335997e-02 1.646001134286390e+00 0.000000000000000e+00
1.854357940952672e-01 9.586001257506046e-01 0.000000000000000e+00
1.965880977943719e-01 1.657275644500513e+00 0.000000000000000e+00
-9.172282916323288e-02 2.562150255295891e+00 0.000000000000000e+00
-3.780910779305556e-01 2.557681948033224e+00 0.000000000000000e+00
1.398100670329929e-02 1.646001134286489e+00 0.000000000000000e+00
1.965880977943154e-01 1.657275644500519e+00 0.000000000000000e+00
-9.172282916328545e-02 2.562150255295958e+00 0.000000000000000e+00
-3.780910779306046e-01 2.557681948033275e+00 0.000000000000000e+00