<?xml version="1.0" ?> 
<!-- 
# vtk DataFile Version 3.0
-->
<VTKFile type="UnstructuredGrid" version="0.1" compressor="vtkZLibDataCompressor" byte_order="LittleEndian">
  <UnstructuredGrid>
    <FieldData>
      <DataArray type="Float64" Name="TIME" NumberOfTuples="1" format="ascii">
0.000000000000000e+00 
      </DataArray>
    </FieldData>

    <Piece NumberOfPoints="768" NumberOfCells="36" >
      <Points>
        <DataArray type="Float64" NumberOfComponents="3" format="ascii">
-5.000000000000000e-01 -5.000000000000000e-01 1.500000000000000e+00
-5.000000000000000e-01 0.000000000000000e+00 1.500000000000000e+00
-5.000000000000000e-01 0.000000000000000e+00 1.000000000000000e+00
-5.000000000000000e-01 -5.000000000000000e-01 1.000000000000000e+00
0.000000000000000e+00 -5.000000000000000e-01 1.000000000000000e+00
0.000000000000000e+00 0.000000000000000e+00 1.000000000000000e+00
0.000000000000000e+00 0.000000000000000e+00 1.500000000000000e+00
0.000000000000000e+00 -5.000000000000000e-01 1.500000000000000e+00
-5.000000000000000e-01 -5.000000000000000e-01 1.000000000000000e+00
-5.000000000000000e-01 0.000000000000000e+00 1.000000000000000e+00
-5.000000000000000e-01 0.000000000000000e+00 5.000000000000000e-01
-5.000000000000000e-01 -5.000000000000000e-01 5.000000000000000e-01
0.000000000000000e+00 -5.000000000000000e-01 5.000000000000000e-01
0.000000000000000e+00 0.000000000000000e+00 5.000000000000000e-01
0.000000000000000e+00 0.000000000000000e+00 1.000000000000000e+00
0.000000000000000e+00 -5.000000000000000e-01 1.000000000000000e+00
-5.000000000000000e-01 -5.000000000000000e-01 5.000000000000000e-01
-5.000000000000000e-01 0.000000000000000e+00 5.000000000000000e-01
-5.000000000000000e-01 0.000000000000000e+00 0.000000000000000e+00
-5.000000000000000e-01 -5.000000000000000e-01 0.000000000000000e+00
0.000000000000000e+00 -5.000000000000000e-01 0.000000000000000e+00
0.000000000000000e+00 0.000000000000000e+00 0.000000000000000e+00
0.000000000000000e+00 0.000000000000000e+00 5.000000000000000e-01
0.000000000000000e+00 -5.000000000000000e-01 5.000000000000000e-01
-5.000000000000000e-01 -5.000000000000000e-01 0.000000000000000e+00
-5.000000000000000e-01 0.000000000000000e+00 0.000000000000000e+00
-5.000000000000000e-01 0.000000000000000e+00 -5.000000000000000e-01
-5.000000000000000e-01 -5.000000000000000e-01 -5.000000000000000e-01
0.000000000000000e+00 -5.000000000000000e-01 -5.000000000000000e-01
0.000000000000000e+00 0.000000000000000e+00 -5.000000000000000e-01
0.000000000000000e+00 0.000000000000000e+00 0.000000000000000e+00
0.000000000000000e+00 -5.000000000000000e-01 0.000000000000000e+00
-5.000000000000000e-01 -5.000000000000000e-01 -5.000000000000000e-01
-5.000000000000000e-01 0.000000000000000e+00 -5.000000000000000e-01
-5.000000000000000e-01 0.000000000000000e+00 -1.000000000000000e+00
-5.000000000000000e-01 -5.000000000000000e-01 -1.000000000000000e+00
0.000000000000000e+00 -5.000000000000000e-01 -1.000000000000000e+00
0.000000000000000e+00 0.000000000000000e+00 -1.000000000000000e+00
0.000000000000000e+00 0.000000000000000e+00 -5.000000000000000e-01
0.000000000000000e+00 -5.000000000000000e-01 -5.000000000000000e-01
-5.000000000000000e-01 -5.000000000000000e-01 -1.000000000000000e+00
-5.000000000000000e-01 0.000000000000000e+00 -1.000000000000000e+00
-5.000000000000000e-01 0.000000000000000e+00 -1.500000000000000e+00
-5.000000000000000e-01 -5.000000000000000e-01 -1.500000000000000e+00
0.000000000000000e+00 -5.000000000000000e-01 -1.500000000000000e+00
0.000000000000000e+00 0.000000000000000e+00 -1.500000000000000e+00
0.000000000000000e+00 0.000000000000000e+00 -1.000000000000000e+00
0.000000000000000e+00 -5.000000000000000e-01 -1.000000000000000e+00
-5.000000000000000e-01 0.000000000000000e+00 1.500000000000000e+00
-5.000000000000000e-01 5.000000000000000e-01 1.500000000000000e+00
-5.000000000000000e-01 5.000000000000000e-01 1.000000000000000e+00
-5.000000000000000e-01 0.000000000000000e+00 1.000000000000000e+00
0.000000000000000e+00 0.000000000000000e+00 1.000000000000000e+00
0.000000000000000e+00 5.000000000000000e-01 1.000000000000000e+00
0.000000000000000e+00 5.000000000000000e-01 1.500000000000000e+00
0.000000000000000e+00 0.000000000000000e+00 1.500000000000000e+00
-5.000000000000000e-01 0.000000000000000e+00 1.000000000000000e+00
-5.000000000000000e-01 5.000000000000000e-01 1.000000000000000e+00
-5.000000000000000e-01 5.000000000000000e-01 5.000000000000000e-01
-5.000000000000000e-01 0.000000000000000e+00 5.000000000000000e-01
0.000000000000000e+00 0.000000000000000e+00 5.000000000000000e-01
0.000000000000000e+00 5.000000000000000e-01 5.000000000000000e-01
0.000000000000000e+00 5.000000000000000e-01 1.000000000000000e+00
0.000000000000000e+00 0.000000000000000e+00 1.000000000000000e+00
-5.000000000000000e-01 0.000000000000000e+00 5.000000000000000e-01
-5.000000000000000e-01 5.000000000000000e-01 5.000000000000000e-01
-5.000000000000000e-01 5.000000000000000e-01 0.000000000000000e+00
-5.000000000000000e-01 0.000000000000000e+00 0.000000000000000e+00
0.000000000000000e+00 0.000000000000000e+00 0.000000000000000e+00
0.000000000000000e+00 5.000000000000000e-01 0.000000000000000e+00
0.000000000000000e+00 5.000000000000000e-01 5.000000000000000e-01
0.000000000000000e+00 0.000000000000000e+00 5.000000000000000e-01
-5.000000000000000e-01 0.000000000000000e+00 0.000000000000000e+00
-5.000000000000000e-01 5.000000000000000e-01 0.000000000000000e+00
-5.000000000000000e-01 5.000000000000000e-01 -5.000000000000000e-01
-5.000000000000000e-01 0.000000000000000e+00 -5.000000000000000e-01
0.000000000000000e+00 0.000000000000000e+00 -5.000000000000000e-01
0.000000000000000e+00 5.000000000000000e-01 -5.000000000000000e-01
0.000000000000000e+00 5.000000000000000e-01 0.000000000000000e+00
0.000000000000000e+00 0.000000000000000e+00 0.000000000000000e+00
-5.000000000000000e-01 0.000000000000000e+00 -5.000000000000000e-01
-5.000000000000000e-01 5.000000000000000e-01 -5.000000000000000e-01
-5.000000000000000e-01 5.000000000000000e-01 -1.000000000000000e+00
-5.000000000000000e-01 0.000000000000000e+00 -1.000000000000000e+00
0.000000000000000e+00 0.000000000000000e+00 -1.000000000000000e+00
0.000000000000000e+00 5.000000000000000e-01 -1.000000000000000e+00
0.000000000000000e+00 5.000000000000000e-01 -5.000000000000000e-01
0.000000000000000e+00 0.000000000000000e+00 -5.000000000000000e-01
-5.000000000000000e-01 0.000000000000000e+00 -1.000000000000000e+00
-5.000000000000000e-01 5.000000000000000e-01 -1.000000000000000e+00
-5.000000000000000e-01 5.000000000000000e-01 -1.500000000000000e+00
-5.000000000000000e-01 0.000000000000000e+00 -1.500000000000000e+00
0.000000000000000e+00 0.000000000000000e+00 -1.500000000000000e+00
0.000000000000000e+00 5.000000000000000e-01 -1.500000000000000e+00
0.000000000000000e+00 5.000000000000000e-01 -1.000000000000000e+00
0.000000000000000e+00 0.000000000000000e+00 -1.000000000000000e+00
0.000000000000000e+00 -5.000000000000000e-01 1.500000000000000e+00
0.000000000000000e+00 0.000000000000000e+00 1.500000000000000e+00
0.000000000000000e+00 0.000000000000000e+00 1.000000000000000e+00
0.000000000000000e+00 -5.000000000000000e-01 1.000000000000000e+00
5.000000000000000e-01 -5.000000000000000e-01 1.000000000000000e+00
5.000000000000000e-01 0.000000000000000e+00 1.000000000000000e+00
5.000000000000000e-01 0.000000000000000e+00 1.500000000000000e+00
5.000000000000000e-01 -5.000000000000000e-01 1.500000000000000e+00
0.000000000000000e+00 -5.000000000000000e-01 1.000000000000000e+00
0.000000000000000e+00 0.000000000000000e+00 1.000000000000000e+00
0.000000000000000e+00 0.000000000000000e+00 5.000000000000000e-01
0.000000000000000e+00 -5.000000000000000e-01 5.000000000000000e-01
5.000000000000000e-01 -5.000000000000000e-01 5.000000000000000e-01
5.000000000000000e-01 0.000000000000000e+00 5.000000000000000e-01
5.000000000000000e-01 0.000000000000000e+00 1.000000000000000e+00
5.000000000000000e-01 -5.000000000000000e-01 1.000000000000000e+00
0.000000000000000e+00 -5.000000000000000e-01 5.000000000000000e-01
0.000000000000000e+00 0.000000000000000e+00 5.000000000000000e-01
0.000000000000000e+00 0.000000000000000e+00 0.000000000000000e+00
0.000000000000000e+00 -5.000000000000000e-01 0.000000000000000e+00
5.000000000000000e-01 -5.000000000000000e-01 0.000000000000000e+00
5.000000000000000e-01 0.000000000000000e+00 0.000000000000000e+00
5.000000000000000e-01 0.000000000000000e+00 5.000000000000000e-01
5.000000000000000e-01 -5.000000000000000e-01 5.000000000000000e-01
0.000000000000000e+00 -5.000000000000000e-01 0.000000000000000e+00
0.000000000000000e+00 0.000000000000000e+00 0.000000000000000e+00
0.000000000000000e+00 0.000000000000000e+00 -5.000000000000000e-01
0.000000000000000e+00 -5.000000000000000e-01 -5.000000000000000e-01
5.000000000000000e-01 -5.000000000000000e-01 -5.000000000000000e-01
5.000000000000000e-01 0.000000000000000e+00 -5.000000000000000e-01
5.000000000000000e-01 0.000000000000000e+00 0.000000000000000e+00
5.000000000000000e-01 -5.000000000000000e-01 0.000000000000000e+00
0.000000000000000e+00 -5.000000000000000e-01 -5.000000000000000e-01
0.000000000000000e+00 0.000000000000000e+00 -5.000000000000000e-01
0.000000000000000e+00 0.000000000000000e+00 -1.000000000000000e+00
0.000000000000000e+00 -5.000000000000000e-01 -1.000000000000000e+00
5.000000000000000e-01 -5.000000000000000e-01 -1.000000000000000e+00
5.000000000000000e-01 0.000000000000000e+00 -1.000000000000000e+00
5.000000000000000e-01 0.000000000000000e+00 -5.000000000000000e-01
5.000000000000000e-01 -5.000000000000000e-01 -5.000000000000000e-01
0.000000000000000e+00 -5.000000000000000e-01 -1.000000000000000e+00
0.000000000000000e+00 0.000000000000000e+00 -1.000000000000000e+00
0.000000000000000e+00 0.000000000000000e+00 -1.500000000000000e+00
0.000000000000000e+00 -5.000000000000000e-01 -1.500000000000000e+00
5.000000000000000e-01 -5.000000000000000e-01 -1.500000000000000e+00
[...]
  <CellData>
        <DataArray type="Int32" Name="element_created_on_rank" format="ascii">
1
1
1
1
1
1
1
1
1
1
1
1
1
1
1
1
1
1
1
1
1
1
1
1
1
1
1
1
1
1
1
1
1
1
1
1
        </DataArray>
        <DataArray type="Int32" Name="element_id" format="ascii">
0
1
2
3
4
5
6
7
8
9
10
11
12
13
14
15
16
17
18
19
20
21
22
23
24
25
26
27
28
29
24
25
26
27
28
29
        </DataArray>
        <DataArray type="Int32" Name="primitive_predicate_flag" format="ascii">
0
0
0
0
0
0
0
0
0
0
0
0
0
0
0
0
0
0
0
0
0
0
0
0
0
0
0
0
0
0
1
1
1
1
1
1
        </DataArray>
      </CellData>

    </Piece>
  </UnstructuredGrid>
</VTKFile>
