<?xml version="1.0" ?> 
<!-- 
# vtk DataFile Version 3.0
-->
<VTKFile type="UnstructuredGrid" version="0.1" compressor="vtkZLibDataCompressor" byte_order="LittleEndian">
  <UnstructuredGrid>
    <FieldData>
      <DataArray type="Float64" Name="TIME" NumberOfTuples="1" format="ascii">
1.000000000000000e+00 
      </DataArray>
    </FieldData>

    <Piece NumberOfPoints="1545" NumberOfCells="35" >
      <Points>
        <DataArray type="Float64" NumberOfComponents="3" format="ascii">
-5.243655443191528e-01 -9.667754173278809e-02 1.561294198036194e+00
-5.243655443191528e-01 2.823865413665771e-01 1.561294198036194e+00
-5.243655443191528e-01 3.769637346267700e-01 1.466717004776001e+00
-5.243655443191528e-01 3.769637346267700e-01 1.077096521854401e+00
-5.243655443191528e-01 2.960193157196045e-01 9.961521029472351e-01
-5.243655443191528e-01 -1.230120062828064e-01 9.961521029472351e-01
-5.243655443191528e-01 -1.935440301895142e-01 1.066684126853943e+00
-5.243655443191528e-01 -1.935440301895142e-01 1.464427709579468e+00
-4.554686602205038e-03 -1.076292395591736e-01 9.834929727949202e-01
-4.554686602205038e-03 2.750355601310730e-01 9.834929727949202e-01
-4.554686602205038e-03 3.784408248029649e-01 1.086898237466812e+00
-4.554686602205038e-03 3.784408248029649e-01 1.473451465368271e+00
-4.554686602205038e-03 3.055793046951294e-01 1.546312985476106e+00
-4.554686602205038e-03 -1.136095523834229e-01 1.546312985476106e+00
-4.554686602205038e-03 -1.955045885406435e-01 1.464417949318886e+00
-4.554686602205038e-03 -1.955045885406435e-01 1.071368321776390e+00
-2.174198627471924e-02 -2.126919180154800e-01 1.071368351578712e+00
-2.174201607704163e-02 -2.126919180154800e-01 1.464417949318886e+00
-2.566313743591309e-02 -2.126919180154800e-01 1.468339070677757e+00
-5.013062953948975e-01 -2.126919180154800e-01 1.468339070677757e+00
-5.052176564931870e-01 -2.126919180154800e-01 1.464427709579468e+00
-5.052176564931870e-01 -2.126919180154800e-01 1.071368351578712e+00
-5.074591636657715e-01 3.938702344894409e-01 1.466716885566711e+00
-1.998409628868103e-02 3.938702344894409e-01 1.466716885566711e+00
-1.998409628868103e-02 3.938702344894409e-01 1.086898237466812e+00
-3.366231918334961e-02 3.938702344894409e-01 1.073220014572144e+00
-5.035825371742249e-01 3.938702344894409e-01 1.073220014572144e+00
-5.074590444564819e-01 3.938702344894409e-01 1.077096521854401e+00
-5.035825371742249e-01 2.960193157196045e-01 9.753690958023071e-01
-3.366231918334961e-02 2.960193157196045e-01 9.753690958023071e-01
-1.267856359481812e-02 2.750355601310730e-01 9.753690958023071e-01
-1.267856359481812e-02 -1.076292395591736e-01 9.753690958023071e-01
-2.174198627471924e-02 -1.166926622390747e-01 9.753690958023071e-01
-5.035825371742249e-01 -1.166926622390747e-01 9.753690958023071e-01
-5.013062953948975e-01 -1.136096715927124e-01 1.567421317100525e+00
-2.566313743591309e-02 -1.136096715927124e-01 1.567421317100525e+00
-2.566301822662354e-02 2.931658029556274e-01 1.567421317100525e+00
-5.074591636657715e-01 2.931658029556274e-01 1.567421317100525e+00
-5.182384252548218e-01 2.823865413665771e-01 1.567421317100525e+00
-5.182384252548218e-01 -9.667754173278809e-02 1.567421317100525e+00
-5.099018812179565e-01 -2.080076932907104e-01 1.066684126853943e+00
-1.324951648712158e-02 3.871356546878815e-01 1.473451465368271e+00
-5.099018812179565e-01 -1.230120062828064e-01 9.816884398460388e-01
-1.324951648712158e-02 3.055793046951294e-01 1.555007815361023e+00
-5.216210484504700e-01 -1.962884664535522e-01 1.066684186458588e+00
-5.216210484504700e-01 1.866657733917236e-01 1.066684186458588e+00
-5.216210484504700e-01 2.779808044433594e-01 9.753691554069519e-01
-5.216210484504700e-01 2.779808044433594e-01 5.795125663280487e-01
-5.216210484504700e-01 2.031343579292297e-01 5.046661198139191e-01
-5.216210484504700e-01 -2.254066765308380e-01 5.046661198139191e-01
-5.216210484504700e-01 -2.848995327949524e-01 5.641589760780334e-01
-5.216210484504700e-01 -2.848995327949524e-01 9.780731201171875e-01
-1.329128979705274e-03 -2.089872062206268e-01 4.875642011174932e-01
-1.329128979705274e-03 1.877527832984924e-01 4.875642011174932e-01
-1.329128979705274e-03 2.718100001802668e-01 5.716214179992676e-01
-1.329128979705274e-03 2.718100001802668e-01 9.834929704666138e-01
-1.329128979705274e-03 2.043474912643433e-01 1.050955479382537e+00
-1.329128979705274e-03 -2.126919031143188e-01 1.050955479382537e+00
-1.329128979705274e-03 -2.894888868322596e-01 9.741584956645966e-01
-1.329128979705274e-03 -2.894888868322596e-01 5.680658817291260e-01
-1.628100872039795e-02 -3.044407665729523e-01 5.680658817291260e-01
-1.628100872039795e-02 -3.044407665729523e-01 9.741584956645966e-01
-2.174198627471924e-02 -3.044407665729523e-01 9.796194732189178e-01
-5.005334615707397e-01 -3.044407665729523e-01 9.796194732189178e-01
-5.020798146724701e-01 -3.044407665729523e-01 9.780731201171875e-01
-5.020798146724701e-01 -3.044407665729523e-01 5.680658817291260e-01
-5.035825967788696e-01 2.960193157196045e-01 9.753690958023071e-01
-2.553844451904297e-02 2.960193157196045e-01 9.753690958023071e-01
-2.553844451904297e-02 2.960193157196045e-01 5.771803259849548e-01
-5.012502968311310e-01 2.960193157196045e-01 5.771803259849548e-01
-5.035825371742249e-01 2.960193157196045e-01 5.795125663280487e-01
-5.012502968311310e-01 2.031343281269073e-01 4.842953383922577e-01
-1.997953653335571e-02 2.031343281269073e-01 4.842953383922577e-01
-4.597991704940796e-03 1.877527832984924e-01 4.842953383922577e-01
-4.597991704940796e-03 -2.089872062206268e-01 4.842953383922577e-01
-1.628100872039795e-02 -2.206702232360840e-01 4.842953383922577e-01
-5.012502670288086e-01 -2.206702232360840e-01 4.842953383922577e-01
-5.005334615707397e-01 -2.126919031143188e-01 1.071368336677551e+00
-2.174198627471924e-02 -2.126919031143188e-01 1.071368336677551e+00
-2.174198627471924e-02 2.000200748443604e-01 1.071368336677551e+00
-5.035825967788696e-01 2.000200748443604e-01 1.071368336677551e+00
-5.169368982315063e-01 1.866657733917236e-01 1.071368336677551e+00
-5.169368982315063e-01 -1.962884664535522e-01 1.071368336677551e+00
-5.059867203235626e-01 -3.005338609218597e-01 5.641589760780334e-01
-1.741456985473633e-02 2.878954410552979e-01 9.834929704666138e-01
-1.997953653335571e-02 2.904604077339172e-01 5.716214179992676e-01
-5.059867203235626e-01 -2.254066765308380e-01 4.890317916870117e-01
-1.741456985473633e-02 2.043474912643433e-01 1.067040920257568e+00
-5.162587761878967e-01 -2.902618646621704e-01 5.641589760780334e-01
-5.162587761878967e-01 1.082621812820435e-01 5.641589760780334e-01
-5.162587761878967e-01 1.881258487701416e-01 4.842953085899353e-01
-5.162587761878967e-01 1.881258487701416e-01 7.123082876205444e-02
-5.162587761878967e-01 1.240246295928955e-01 7.129609584808350e-03
-5.162587761878967e-01 -3.169603347778320e-01 7.129609584808350e-03
-5.162587761878967e-01 -3.661051392555237e-01 5.627441406250000e-02
-5.162587761878967e-01 -3.661051392555237e-01 4.883157014846802e-01
-3.846662366413511e-05 -3.048208463005722e-01 -7.402162740618223e-03
-3.846662366413511e-05 1.137229758314788e-01 -7.402162740618223e-03
-3.846662366413511e-05 1.864621259483101e-01 6.533698737621307e-02
-3.846662366413511e-05 1.864621259483101e-01 4.875642061233521e-01
-3.846662366413511e-05 1.222029924392700e-01 5.518233396323922e-01
-3.846662366413511e-05 -3.044407367706299e-01 5.518233396323922e-01
-3.846662366413511e-05 -3.708736814769509e-01 4.853903949260712e-01
-3.846662366413511e-05 -3.708736814769509e-01 5.865067243576050e-02
-1.118442416191101e-02 -3.820196390151978e-01 5.865067243576050e-02
-1.118442416191101e-02 -3.820196390151978e-01 4.853903949260712e-01
-1.628100872039795e-02 -3.820196390151978e-01 4.904869794845581e-01
-4.981729984283447e-01 -3.820196390151978e-01 4.904869794845581e-01
-5.003442764282227e-01 -3.820196390151978e-01 4.883157014846802e-01
-5.003442764282227e-01 -3.820196390151978e-01 5.865067243576050e-02
-5.012502670288086e-01 2.031343430280685e-01 4.842953234910965e-01
-1.671068370342255e-02 2.031343430280685e-01 4.842953234910965e-01
-1.671068370342255e-02 2.031343430280685e-01 7.010176777839661e-02
-5.001212209463120e-01 2.031343430280685e-01 7.010176777839661e-02
-5.012502819299698e-01 2.031343430280685e-01 7.123082876205444e-02
-5.001212209463120e-01 1.240246417000890e-01 -9.007933549582958e-03
-1.194590330123901e-02 1.240246417000890e-01 -9.007933549582958e-03
-1.644237432628870e-03 1.137229758314788e-01 -9.007933549582958e-03
-1.644237432628870e-03 -3.048208463005722e-01 -9.007933549582958e-03
-1.118442416191101e-02 -3.143610330298543e-01 -9.007933549582958e-03
-5.001212330535054e-01 -3.143610330298543e-01 -9.007933549582958e-03
-4.981729984283447e-01 -3.044407367706299e-01 5.680658817291260e-01
-1.628100872039795e-02 -3.044407367706299e-01 5.680658817291260e-01
-1.628100872039795e-02 1.193637847900391e-01 5.680658817291260e-01
-5.012502670288086e-01 1.193637847900391e-01 5.680658817291260e-01
-5.123518705368042e-01 1.082621812820435e-01 5.680658817291260e-01
-5.123518705368042e-01 -2.902618646621704e-01 5.680658817291260e-01
-5.027205348014832e-01 -3.796433806419373e-01 5.627441406250000e-02
-1.344180107116699e-02 1.998654603958130e-01 4.875642061233521e-01
-1.194590330123901e-02 1.983695626258850e-01 6.533698737621307e-02
-5.027205348014832e-01 -3.169603347778320e-01 -6.408631801605225e-03
-1.344180107116699e-02 1.222029924392700e-01 5.652266740798950e-01
-5.110791921615601e-01 -3.712847232818604e-01 5.627441406250000e-02
-5.110791921615601e-01 4.778432846069336e-02 5.627441406250000e-02
-5.110791921615601e-01 1.130666732788086e-01 -9.007930755615234e-03
-5.110791921615601e-01 1.130666732788086e-01 -4.415801763534546e-01
-5.110791921615601e-01 6.150066852569580e-02 -4.931461811065674e-01
-5.110791921615601e-01 -3.958328962326050e-01 -4.931461811065674e-01
-5.110791921615601e-01 -4.319834113121033e-01 -4.569956660270691e-01
-5.110791921615601e-01 -4.319834113121033e-01 -4.424273967742920e-03
[...]
  <CellData>
        <DataArray type="Int32" Name="element_created_on_rank" format="ascii">
1
1
1
1
1
1
1
1
1
1
1
1
1
1
1
1
1
1
1
1
1
1
1
1
1
1
1
1
1
1
1
1
1
1
1
        </DataArray>
        <DataArray type="Int32" Name="element_id" format="ascii">
0
1
2
3
4
5
6
7
8
9
10
11
12
13
14
15
16
17
18
19
20
21
22
23
24
25
26
27
28
29
25
26
27
28
29
        </DataArray>
        <DataArray type="Int32" Name="primitive_predicate_flag" format="ascii">
0
0
0
0
0
0
0
0
0
0
0
0
0
0
0
0
0
0
0
0
0
0
0
0
0
0
0
0
0
0
1
1
1
1
1
        </DataArray>
      </CellData>

    </Piece>
  </UnstructuredGrid>
</VTKFile>
