<?xml version="1.0" ?> 
<!-- 
# vtk DataFile Version 3.0
-->
<VTKFile type="UnstructuredGrid" version="0.1" compressor="vtkZLibDataCompressor" byte_order="LittleEndian">
  <UnstructuredGrid>
    <FieldData>
      <DataArray type="Float64" Name="TIME" NumberOfTuples="1" format="ascii">
0.000000000000000e+00 
      </DataArray>
    </FieldData>

    <Piece NumberOfPoints="336" NumberOfCells="27" >
      <Points>
        <DataArray type="Float64" NumberOfComponents="3" format="ascii">
-5.000000000000000e-01 -5.000000000000000e-01 1.500000000000000e+00
-5.000000000000000e-01 0.000000000000000e+00 1.500000000000000e+00
-5.000000000000000e-01 0.000000000000000e+00 1.000000000000000e+00
-5.000000000000000e-01 -5.000000000000000e-01 1.000000000000000e+00
0.000000000000000e+00 -5.000000000000000e-01 1.000000000000000e+00
0.000000000000000e+00 0.000000000000000e+00 1.000000000000000e+00
0.000000000000000e+00 0.000000000000000e+00 1.500000000000000e+00
0.000000000000000e+00 -5.000000000000000e-01 1.500000000000000e+00
-5.000000000000000e-01 -5.000000000000000e-01 1.000000000000000e+00
-5.000000000000000e-01 0.000000000000000e+00 1.000000000000000e+00
-5.000000000000000e-01 0.000000000000000e+00 5.000000000000000e-01
-5.000000000000000e-01 -5.000000000000000e-01 5.000000000000000e-01
0.000000000000000e+00 -5.000000000000000e-01 5.000000000000000e-01
0.000000000000000e+00 0.000000000000000e+00 5.000000000000000e-01
0.000000000000000e+00 0.000000000000000e+00 1.000000000000000e+00
0.000000000000000e+00 -5.000000000000000e-01 1.000000000000000e+00
-5.000000000000000e-01 -5.000000000000000e-01 5.000000000000000e-01
-5.000000000000000e-01 0.000000000000000e+00 5.000000000000000e-01
-5.000000000000000e-01 0.000000000000000e+00 0.000000000000000e+00
-5.000000000000000e-01 -5.000000000000000e-01 0.000000000000000e+00
0.000000000000000e+00 -5.000000000000000e-01 0.000000000000000e+00
0.000000000000000e+00 0.000000000000000e+00 0.000000000000000e+00
0.000000000000000e+00 0.000000000000000e+00 5.000000000000000e-01
0.000000000000000e+00 -5.000000000000000e-01 5.000000000000000e-01
-5.000000000000000e-01 -5.000000000000000e-01 0.000000000000000e+00
-5.000000000000000e-01 0.000000000000000e+00 0.000000000000000e+00
-5.000000000000000e-01 0.000000000000000e+00 -5.000000000000000e-01
-5.000000000000000e-01 -5.000000000000000e-01 -5.000000000000000e-01
0.000000000000000e+00 -5.000000000000000e-01 -5.000000000000000e-01
0.000000000000000e+00 0.000000000000000e+00 -5.000000000000000e-01
0.000000000000000e+00 0.000000000000000e+00 0.000000000000000e+00
0.000000000000000e+00 -5.000000000000000e-01 0.000000000000000e+00
-5.000000000000000e-01 -5.000000000000000e-01 -5.000000000000000e-01
-5.000000000000000e-01 0.000000000000000e+00 -5.000000000000000e-01
-5.000000000000000e-01 0.000000000000000e+00 -1.000000000000000e+00
-5.000000000000000e-01 -5.000000000000000e-01 -1.000000000000000e+00
0.000000000000000e+00 -5.000000000000000e-01 -1.000000000000000e+00
0.000000000000000e+00 0.000000000000000e+00 -1.000000000000000e+00
0.000000000000000e+00 0.000000000000000e+00 -5.000000000000000e-01
0.000000000000000e+00 -5.000000000000000e-01 -5.000000000000000e-01
-5.000000000000000e-01 -5.000000000000000e-01 -1.000000000000000e+00
-5.000000000000000e-01 0.000000000000000e+00 -1.000000000000000e+00
-5.000000000000000e-01 0.000000000000000e+00 -1.500000000000000e+00
-5.000000000000000e-01 -5.000000000000000e-01 -1.500000000000000e+00
0.000000000000000e+00 -5.000000000000000e-01 -1.500000000000000e+00
0.000000000000000e+00 0.000000000000000e+00 -1.500000000000000e+00
0.000000000000000e+00 0.000000000000000e+00 -1.000000000000000e+00
0.000000000000000e+00 -5.000000000000000e-01 -1.000000000000000e+00
-5.000000000000000e-01 0.000000000000000e+00 1.500000000000000e+00
-5.000000000000000e-01 5.000000000000000e-01 1.500000000000000e+00
-5.000000000000000e-01 5.000000000000000e-01 1.000000000000000e+00
-5.000000000000000e-01 0.000000000000000e+00 1.000000000000000e+00
0.000000000000000e+00 0.000000000000000e+00 1.000000000000000e+00
0.000000000000000e+00 5.000000000000000e-01 1.000000000000000e+00
0.000000000000000e+00 5.000000000000000e-01 1.500000000000000e+00
0.000000000000000e+00 0.000000000000000e+00 1.500000000000000e+00
-5.000000000000000e-01 0.000000000000000e+00 1.000000000000000e+00
-5.000000000000000e-01 5.000000000000000e-01 1.000000000000000e+00
-5.000000000000000e-01 5.000000000000000e-01 5.000000000000000e-01
-5.000000000000000e-01 0.000000000000000e+00 5.000000000000000e-01
0.000000000000000e+00 0.000000000000000e+00 5.000000000000000e-01
0.000000000000000e+00 5.000000000000000e-01 5.000000000000000e-01
0.000000000000000e+00 5.000000000000000e-01 1.000000000000000e+00
0.000000000000000e+00 0.000000000000000e+00 1.000000000000000e+00
-5.000000000000000e-01 0.000000000000000e+00 5.000000000000000e-01
-5.000000000000000e-01 5.000000000000000e-01 5.000000000000000e-01
-5.000000000000000e-01 5.000000000000000e-01 0.000000000000000e+00
-5.000000000000000e-01 0.000000000000000e+00 0.000000000000000e+00
0.000000000000000e+00 0.000000000000000e+00 0.000000000000000e+00
0.000000000000000e+00 5.000000000000000e-01 0.000000000000000e+00
0.000000000000000e+00 5.000000000000000e-01 5.000000000000000e-01
0.000000000000000e+00 0.000000000000000e+00 5.000000000000000e-01
-5.000000000000000e-01 0.000000000000000e+00 0.000000000000000e+00
-5.000000000000000e-01 5.000000000000000e-01 0.000000000000000e+00
-5.000000000000000e-01 5.000000000000000e-01 -5.000000000000000e-01
-5.000000000000000e-01 0.000000000000000e+00 -5.000000000000000e-01
0.000000000000000e+00 0.000000000000000e+00 -5.000000000000000e-01
0.000000000000000e+00 5.000000000000000e-01 -5.000000000000000e-01
0.000000000000000e+00 5.000000000000000e-01 0.000000000000000e+00
0.000000000000000e+00 0.000000000000000e+00 0.000000000000000e+00
-5.000000000000000e-01 0.000000000000000e+00 -5.000000000000000e-01
-5.000000000000000e-01 5.000000000000000e-01 -5.000000000000000e-01
-5.000000000000000e-01 5.000000000000000e-01 -1.000000000000000e+00
-5.000000000000000e-01 0.000000000000000e+00 -1.000000000000000e+00
0.000000000000000e+00 0.000000000000000e+00 -1.000000000000000e+00
0.000000000000000e+00 5.000000000000000e-01 -1.000000000000000e+00
0.000000000000000e+00 5.000000000000000e-01 -5.000000000000000e-01
0.000000000000000e+00 0.000000000000000e+00 -5.000000000000000e-01
-5.000000000000000e-01 0.000000000000000e+00 -1.000000000000000e+00
-5.000000000000000e-01 5.000000000000000e-01 -1.000000000000000e+00
-5.000000000000000e-01 5.000000000000000e-01 -1.500000000000000e+00
-5.000000000000000e-01 0.000000000000000e+00 -1.500000000000000e+00
0.000000000000000e+00 0.000000000000000e+00 -1.500000000000000e+00
0.000000000000000e+00 5.000000000000000e-01 -1.500000000000000e+00
0.000000000000000e+00 5.000000000000000e-01 -1.000000000000000e+00
0.000000000000000e+00 0.000000000000000e+00 -1.000000000000000e+00
0.000000000000000e+00 -5.000000000000000e-01 1.500000000000000e+00
0.000000000000000e+00 0.000000000000000e+00 1.500000000000000e+00
0.000000000000000e+00 0.000000000000000e+00 1.000000000000000e+00
0.000000000000000e+00 -5.000000000000000e-01 1.000000000000000e+00
5.000000000000000e-01 -5.000000000000000e-01 1.000000000000000e+00
5.000000000000000e-01 0.000000000000000e+00 1.000000000000000e+00
5.000000000000000e-01 0.000000000000000e+00 1.500000000000000e+00
5.000000000000000e-01 -5.000000000000000e-01 1.500000000000000e+00
0.000000000000000e+00 -5.000000000000000e-01 1.000000000000000e+00
0.000000000000000e+00 0.000000000000000e+00 1.000000000000000e+00
0.000000000000000e+00 0.000000000000000e+00 5.000000000000000e-01
0.000000000000000e+00 -5.000000000000000e-01 5.000000000000000e-01
5.000000000000000e-01 -5.000000000000000e-01 5.000000000000000e-01
5.000000000000000e-01 0.000000000000000e+00 5.000000000000000e-01
5.000000000000000e-01 0.000000000000000e+00 1.000000000000000e+00
5.000000000000000e-01 -5.000000000000000e-01 1.000000000000000e+00
0.000000000000000e+00 -5.000000000000000e-01 5.000000000000000e-01
0.000000000000000e+00 0.000000000000000e+00 5.000000000000000e-01
0.000000000000000e+00 0.000000000000000e+00 0.000000000000000e+00
0.000000000000000e+00 -5.000000000000000e-01 0.000000000000000e+00
5.000000000000000e-01 -5.000000000000000e-01 0.000000000000000e+00
5.000000000000000e-01 0.000000000000000e+00 0.000000000000000e+00
5.000000000000000e-01 0.000000000000000e+00 5.000000000000000e-01
5.000000000000000e-01 -5.000000000000000e-01 5.000000000000000e-01
0.000000000000000e+00 -5.000000000000000e-01 0.000000000000000e+00
0.000000000000000e+00 0.000000000000000e+00 0.000000000000000e+00
0.000000000000000e+00 0.000000000000000e+00 -5.000000000000000e-01
0.000000000000000e+00 -5.000000000000000e-01 -5.000000000000000e-01
5.000000000000000e-01 -5.000000000000000e-01 -5.000000000000000e-01
5.000000000000000e-01 0.000000000000000e+00 -5.000000000000000e-01
5.000000000000000e-01 0.000000000000000e+00 0.000000000000000e+00
5.000000000000000e-01 -5.000000000000000e-01 0.000000000000000e+00
0.000000000000000e+00 -5.000000000000000e-01 -5.000000000000000e-01
0.000000000000000e+00 0.000000000000000e+00 -5.000000000000000e-01
0.000000000000000e+00 0.000000000000000e+00 -1.000000000000000e+00
0.000000000000000e+00 -5.000000000000000e-01 -1.000000000000000e+00
5.000000000000000e-01 -5.000000000000000e-01 -1.000000000000000e+00
5.000000000000000e-01 0.000000000000000e+00 -1.000000000000000e+00
5.000000000000000e-01 0.000000000000000e+00 -5.000000000000000e-01
5.000000000000000e-01 -5.000000000000000e-01 -5.000000000000000e-01
0.000000000000000e+00 -5.000000000000000e-01 -1.000000000000000e+00
0.000000000000000e+00 0.000000000000000e+00 -1.000000000000000e+00
0.000000000000000e+00 0.000000000000000e+00 -1.500000000000000e+00
0.000000000000000e+00 -5.000000000000000e-01 -1.500000000000000e+00
5.000000000000000e-01 -5.000000000000000e-01 -1.500000000000000e+00
5.000000000000000e-01 0.000000000000000e+00 -1.500000000000000e+00
5.000000000000000e-01 0.000000000000000e+00 -1.000000000000000e+00
5.000000000000000e-01 -5.000000000000000e-01 -1.000000000000000e+00
0.000000000000000e+00 0.000000000000000e+00 1.500000000000000e+00
0.000000000000000e+00 5.000000000000000e-01 1.500000000000000e+00
0.000000000000000e+00 5.000000000000000e-01 1.000000000000000e+00
0.000000000000000e+00 0.000000000000000e+00 1.000000000000000e+00
5.000000000000000e-01 0.000000000000000e+00 1.000000000000000e+00
5.000000000000000e-01 5.000000000000000e-01 1.000000000000000e+00
5.000000000000000e-01 5.000000000000000e-01 1.500000000000000e+00
5.000000000000000e-01 0.000000000000000e+00 1.500000000000000e+00
0.000000000000000e+00 0.000000000000000e+00 1.000000000000000e+00
0.000000000000000e+00 5.000000000000000e-01 1.000000000000000e+00
0.000000000000000e+00 5.000000000000000e-01 5.000000000000000e-01
0.000000000000000e+00 0.000000000000000e+00 5.000000000000000e-01
5.000000000000000e-01 0.000000000000000e+00 5.000000000000000e-01
5.000000000000000e-01 5.000000000000000e-01 5.000000000000000e-01
5.000000000000000e-01 5.000000000000000e-01 1.000000000000000e+00
5.000000000000000e-01 0.000000000000000e+00 1.000000000000000e+00
0.000000000000000e+00 0.000000000000000e+00 5.000000000000000e-01
0.000000000000000e+00 5.000000000000000e-01 5.000000000000000e-01
0.000000000000000e+00 5.000000000000000e-01 0.000000000000000e+00
0.000000000000000e+00 0.000000000000000e+00 0.000000000000000e+00
5.000000000000000e-01 0.000000000000000e+00 0.000000000000000e+00
5.000000000000000e-01 5.000000000000000e-01 0.000000000000000e+00
5.000000000000000e-01 5.000000000000000e-01 5.000000000000000e-01
5.000000000000000e-01 0.000000000000000e+00 5.000000000000000e-01
0.000000000000000e+00 0.000000000000000e+00 0.000000000000000e+00
0.000000000000000e+00 5.000000000000000e-01 0.000000000000000e+00
0.000000000000000e+00 5.000000000000000e-01 -5.000000000000000e-01
0.000000000000000e+00 0.000000000000000e+00 -5.000000000000000e-01
5.000000000000000e-01 0.000000000000000e+00 -5.000000000000000e-01
5.000000000000000e-01 5.000000000000000e-01 -5.000000000000000e-01
5.000000000000000e-01 5.000000000000000e-01 0.000000000000000e+00
5.000000000000000e-01 0.000000000000000e+00 0.000000000000000e+00
0.000000000000000e+00 0.000000000000000e+00 -5.000000000000000e-01
0.000000000000000e+00 5.000000000000000e-01 -5.000000000000000e-01
0.000000000000000e+00 5.000000000000000e-01 -1.000000000000000e+00
0.000000000000000e+00 0.000000000000000e+00 -1.000000000000000e+00
5.000000000000000e-01 0.000000000000000e+00 -1.000000000000000e+00
5.000000000000000e-01 5.000000000000000e-01 -1.000000000000000e+00
5.000000000000000e-01 5.000000000000000e-01 -5.000000000000000e-01
5.000000000000000e-01 0.000000000000000e+00 -5.000000000000000e-01
0.000000000000000e+00 0.000000000000000e+00 -1.000000000000000e+00
0.000000000000000e+00 5.000000000000000e-01 -1.000000000000000e+00
0.000000000000000e+00 5.000000000000000e-01 -1.500000000000000e+00
0.000000000000000e+00 0.000000000000000e+00 -1.500000000000000e+00
5.000000000000000e-01 0.000000000000000e+00 -1.500000000000000e+00
5.000000000000000e-01 5.000000000000000e-01 -1.500000000000000e+00
5.000000000000000e-01 5.000000000000000e-01 -1.000000000000000e+00
5.000000000000000e-01 0.000000000000000e+00 -1.000000000000000e+00
-2.000000029802322e-01 -6.356751918792725e-02 1.082842633128166e+00
-2.000000029802322e-01 6.356751918792725e-02 1.082842633128166e+00
-2.000000029802322e-01 8.284269273281097e-02 1.063567459583282e+00
-2.000000029802322e-01 8.284269273281097e-02 3.707471787929535e-01
-2.000000029802322e-01 -8.284269273281097e-02 5.364325642585754e-01
-2.000000029802322e-01 -8.284269273281097e-02 1.063567459583282e+00
5.000000000000000e-01 2.364325523376465e-01 -8.284270763397217e-02
5.000000000000000e-01 3.635674715042114e-01 -8.284270763397217e-02
5.000000000000000e-01 3.828427195549011e-01 -6.356745958328247e-02
5.000000000000000e-01 3.828427195549011e-01 4.635674357414246e-01
5.000000000000000e-01 2.171573042869568e-01 6.292528510093689e-01
5.000000000000000e-01 2.171573042869568e-01 -6.356745958328247e-02
8.284269273281097e-02 -2.000000029802322e-01 3.707471787929535e-01
8.284269273281097e-02 -2.000000029802322e-01 1.063567459583282e+00
6.356751918792725e-02 -2.000000029802322e-01 1.082842633128166e+00
-6.356751918792725e-02 -2.000000029802322e-01 1.082842633128166e+00
-8.284269273281097e-02 -2.000000029802322e-01 1.063567459583282e+00
-8.284269273281097e-02 -2.000000029802322e-01 5.364325642585754e-01
3.828427195549011e-01 5.000000000000000e-01 4.635674357414246e-01
3.828427195549011e-01 5.000000000000000e-01 -6.356745958328247e-02
3.635674715042114e-01 5.000000000000000e-01 -8.284270763397217e-02
2.364325523376465e-01 5.000000000000000e-01 -8.284270763397217e-02
2.171573042869568e-01 5.000000000000000e-01 -6.356745958328247e-02
2.171573042869568e-01 5.000000000000000e-01 6.292528510093689e-01
2.364325523376465e-01 3.828427046537399e-01 -2.000000029802322e-01
3.635674715042114e-01 3.828427046537399e-01 -2.000000029802322e-01
3.828427046537399e-01 3.635674715042114e-01 -2.000000029802322e-01
3.828427046537399e-01 2.364325523376465e-01 -2.000000029802322e-01
3.635674715042114e-01 2.171573191881180e-01 -2.000000029802322e-01
2.364325523376465e-01 2.171573191881180e-01 -2.000000029802322e-01
2.171573191881180e-01 2.364325523376465e-01 -2.000000029802322e-01
2.171573191881180e-01 3.635674715042114e-01 -2.000000029802322e-01
-6.356751918792725e-02 -8.284258842468262e-02 1.200000047683716e+00
6.356751918792725e-02 -8.284258842468262e-02 1.200000047683716e+00
8.284258842468262e-02 -6.356751918792725e-02 1.200000047683716e+00
8.284258842468262e-02 6.356751918792725e-02 1.200000047683716e+00
6.356751918792725e-02 8.284258842468262e-02 1.200000047683716e+00
-6.356751918792725e-02 8.284258842468262e-02 1.200000047683716e+00
-8.284258842468262e-02 6.356751918792725e-02 1.200000047683716e+00
-8.284258842468262e-02 -6.356751918792725e-02 1.200000047683716e+00
8.072477579116821e-02 3.635674715042114e-01 -6.356745958328247e-02
-4.641014337539673e-02 2.364325523376465e-01 6.356745958328247e-02
2.192751765251160e-01 -6.356751918792725e-02 1.063567459583282e+00
3.464102149009705e-01 6.356751918792725e-02 9.364324212074280e-01
3.635674715042114e-01 8.072477579116821e-02 -6.356745958328247e-02
2.364325523376465e-01 -4.641014337539673e-02 6.356745958328247e-02
6.356751918792725e-02 3.464102149009705e-01 9.364324212074280e-01
-6.356751918792725e-02 2.192751765251160e-01 1.063567459583282e+00
-5.000000000000000e-01 -3.635675907135010e-01 2.082842588424683e+00
-5.000000000000000e-01 -2.364323139190674e-01 2.082842588424683e+00
-5.000000000000000e-01 -2.171573042869568e-01 2.063567578792572e+00
-5.000000000000000e-01 -2.171573042869568e-01 1.370747148990631e+00
-5.000000000000000e-01 -3.828427195549011e-01 1.536432564258575e+00
-5.000000000000000e-01 -3.828427195549011e-01 2.063567459583282e+00
2.000000029802322e-01 -6.356745958328247e-02 9.171573072671890e-01
2.000000029802322e-01 6.356745958328247e-02 9.171573072671890e-01
2.000000029802322e-01 8.284269273281097e-02 9.364325404167175e-01
2.000000029802322e-01 8.284269273281097e-02 1.463567435741425e+00
2.000000029802322e-01 -8.284269273281097e-02 1.629252821207047e+00
2.000000029802322e-01 -8.284269273281097e-02 9.364325404167175e-01
-2.171573042869568e-01 -5.000000000000000e-01 1.370747148990631e+00
-2.171573042869568e-01 -5.000000000000000e-01 2.063567578792572e+00
-2.364323139190674e-01 -5.000000000000000e-01 2.082842588424683e+00
-3.635675907135010e-01 -5.000000000000000e-01 2.082842588424683e+00
-3.828427195549011e-01 -5.000000000000000e-01 2.063567459583282e+00
-3.828427195549011e-01 -5.000000000000000e-01 1.536432564258575e+00
8.284269273281097e-02 2.000000029802322e-01 1.463567435741425e+00
8.284269273281097e-02 2.000000029802322e-01 9.364325404167175e-01
6.356745958328247e-02 2.000000029802322e-01 9.171573072671890e-01
-6.356745958328247e-02 2.000000029802322e-01 9.171573072671890e-01
-8.284269273281097e-02 2.000000029802322e-01 9.364325404167175e-01
-8.284269273281097e-02 2.000000029802322e-01 1.629252821207047e+00
-6.356745958328247e-02 8.284270763397217e-02 8.000000119209290e-01
6.356745958328247e-02 8.284270763397217e-02 8.000000119209290e-01
8.284270763397217e-02 6.356745958328247e-02 8.000000119209290e-01
8.284270763397217e-02 -6.356745958328247e-02 8.000000119209290e-01
6.356745958328247e-02 -8.284270763397217e-02 8.000000119209290e-01
-6.356745958328247e-02 -8.284270763397217e-02 8.000000119209290e-01
-8.284270763397217e-02 -6.356745958328247e-02 8.000000119209290e-01
-8.284270763397217e-02 6.356745958328247e-02 8.000000119209290e-01
-3.635675907135010e-01 -3.828425407409668e-01 2.200000047683716e+00
-2.364323139190674e-01 -3.828425407409668e-01 2.200000047683716e+00
-2.171573638916016e-01 -3.635675907135010e-01 2.200000047683716e+00
-2.171573638916016e-01 -2.364325523376465e-01 2.200000047683716e+00
-2.364325523376465e-01 -2.171573638916016e-01 2.200000047683716e+00
-3.635675907135010e-01 -2.171573638916016e-01 2.200000047683716e+00
-3.828425407409668e-01 -2.364323139190674e-01 2.200000047683716e+00
-3.828425407409668e-01 -3.635675907135010e-01 2.200000047683716e+00
-2.192752361297607e-01 6.356745958328247e-02 9.364325404167175e-01
-3.464101552963257e-01 -6.356745958328247e-02 1.063567459583282e+00
-8.072489500045776e-02 -3.635675907135010e-01 2.063567578792572e+00
4.641014337539673e-02 -2.364325523376465e-01 1.936432540416718e+00
6.356745958328247e-02 -2.192752361297607e-01 9.364325404167175e-01
-6.356745958328247e-02 -3.464101552963257e-01 1.063567459583282e+00
-2.364325523376465e-01 4.641014337539673e-02 1.936432540416718e+00
-3.635675907135010e-01 -8.072489500045776e-02 2.063567578792572e+00
-8.000000119209290e-01 -6.635675430297852e-01 3.082842528820038e+00
-8.000000119209290e-01 -5.364322662353516e-01 3.082842528820038e+00
-8.000000119209290e-01 -5.171573162078857e-01 3.063567578792572e+00
-8.000000119209290e-01 -5.171573162078857e-01 2.370747148990631e+00
-8.000000119209290e-01 -6.828426718711853e-01 2.536432504653931e+00
-8.000000119209290e-01 -6.828426718711853e-01 3.063567399978638e+00
-1.000000089406967e-01 -3.635674715042114e-01 1.917157307267189e+00
-1.000000089406967e-01 -2.364323139190674e-01 1.917157307267189e+00
-1.000000089406967e-01 -2.171573191881180e-01 1.936432301998138e+00
-1.000000089406967e-01 -2.171573191881180e-01 2.463567316532135e+00
-1.000000089406967e-01 -3.828427046537399e-01 2.629252701997757e+00
-1.000000089406967e-01 -3.828427046537399e-01 1.936432540416718e+00
-5.171573162078857e-01 -8.000000119209290e-01 2.370747148990631e+00
-5.171573162078857e-01 -8.000000119209290e-01 3.063567578792572e+00
-5.364322662353516e-01 -8.000000119209290e-01 3.082842528820038e+00
-6.635675430297852e-01 -8.000000119209290e-01 3.082842528820038e+00
-6.828426718711853e-01 -8.000000119209290e-01 3.063567399978638e+00
-6.828426718711853e-01 -8.000000119209290e-01 2.536432504653931e+00
-2.171573191881180e-01 -1.000000089406967e-01 2.463567316532135e+00
-2.171573191881180e-01 -1.000000089406967e-01 1.936432301998138e+00
-2.364323139190674e-01 -1.000000089406967e-01 1.917157307267189e+00
-3.635674715042114e-01 -1.000000089406967e-01 1.917157307267189e+00
-3.828427046537399e-01 -1.000000089406967e-01 1.936432540416718e+00
-3.828427046537399e-01 -1.000000089406967e-01 2.629252701997757e+00
-3.635674715042114e-01 -2.171573638916016e-01 1.799999952316284e+00
-2.364323139190674e-01 -2.171573638916016e-01 1.799999952316284e+00
-2.171573638916016e-01 -2.364323139190674e-01 1.799999952316284e+00
-2.171573638916016e-01 -3.635674715042114e-01 1.799999952316284e+00
-2.364324331283569e-01 -3.828425407409668e-01 1.799999952316284e+00
-3.635675907135010e-01 -3.828425407409668e-01 1.799999952316284e+00
-3.828425407409668e-01 -3.635675907135010e-01 1.799999952316284e+00
-3.828425407409668e-01 -2.364324331283569e-01 1.799999952316284e+00
-6.635675430297852e-01 -6.828424930572510e-01 3.200000047683716e+00
-5.364322662353516e-01 -6.828424930572510e-01 3.200000047683716e+00
-5.171573162078857e-01 -6.635675430297852e-01 3.200000047683716e+00
-5.171573162078857e-01 -5.364327430725098e-01 3.200000047683716e+00
-5.364327430725098e-01 -5.171573162078857e-01 3.200000047683716e+00
-6.635675430297852e-01 -5.171573162078857e-01 3.200000047683716e+00
-6.828424930572510e-01 -5.364322662353516e-01 3.200000047683716e+00
-6.828424930572510e-01 -6.635675430297852e-01 3.200000047683716e+00
-5.192751288414001e-01 -2.364324331283569e-01 1.936432540416718e+00
-6.464102864265442e-01 -3.635675907135010e-01 2.063567698001862e+00
-3.807248473167419e-01 -6.635675430297852e-01 3.063567578792572e+00
-2.535900473594666e-01 -5.364327430725098e-01 2.936432778835297e+00
-2.364324331283569e-01 -5.192751288414001e-01 1.936432540416718e+00
-3.635675907135010e-01 -6.464102864265442e-01 2.063567698001862e+00
-5.364327430725098e-01 -2.535900473594666e-01 2.936432778835297e+00
-6.635675430297852e-01 -3.807248473167419e-01 3.063567578792572e+00
        </DataArray>
      </Points>

      <Cells>
        <DataArray type="Int32" Name="connectivity" format="ascii">
0 1 2 3 4 5 6 7 8 9 10 11 12 13 14 15 16 17 18 19 20 21 22 23 24 25 26 27 28 29 30 31 32 33 34 35 36 37 38 39 40 41 42 43 44 45 46 47 48 49 50 51 52 53 54 55 56 57 58 59 60 61 62 63 64 65 66 67 68 69 70 71 72 73 74 75 76 77 78 79 80 81 82 83 84 85 86 87 88 89 90 91 92 93 94 95 96 97 98 99 100 101 102 103 104 105 106 107 108 109 110 111 112 113 114 115 116 117 118 119 120 121 122 123 124 125 126 127 128 129 130 131 132 133 134 135 136 137 138 139 140 141 142 143 144 145 146 147 148 149 150 151 152 153 154 155 156 157 158 159 160 161 162 163 164 165 166 167 168 169 170 171 172 173 174 175 176 177 178 179 180 181 182 183 184 185 186 187 188 189 190 191 192 193 194 195 196 197 198 199 200 201 202 203 204 205 206 207 208 209 210 211 212 213 214 215 216 217 218 219 220 221 222 223 224 225 226 227 228 229 230 231 232 233 234 235 236 237 238 239 240 241 242 243 244 245 246 247 248 249 250 251 252 253 254 255 256 257 258 259 260 261 262 263 264 265 266 267 268 269 270 271 272 273 274 275 276 277 278 279 280 281 282 283 284 285 286 287 288 289 290 291 292 293 294 295 296 297 298 299 300 301 302 303 304 305 306 307 308 309 310 311 312 313 314 315 316 317 318 319 320 321 322 323 324 325 326 327 328 329 330 331 332 333 334 335 
        </DataArray>
        <DataArray type="Int32" Name="offsets" format="ascii">
8 16 24 32 40 48 56 64 72 80 88 96 104 112 120 128 136 144 152 160 168 176 184 192 240 288 336 
        </DataArray>
        <DataArray type="UInt8" Name="types" format="ascii">
42 42 42 42 42 42 42 42 42 42 42 42 42 42 42 42 42 42 42 42 42 42 42 42 42 42 42 
        </DataArray>
        <DataArray type="Int32" Name="faces" format="ascii">
6 4 0 1 2 3 4 4 5 6 7 4 3 4 7 0 4 1 6 5 2 4 2 5 4 3 4 0 7 6 1 6 4 8 9 10 11 4 12 13 14 15 4 11 12 15 8 4 9 14 13 10 4 10 13 12 11 4 8 15 14 9 6 4 16 17 18 19 4 20 21 22 23 4 19 20 23 16 4 17 22 21 18 4 18 21 20 19 4 16 23 22 17 6 4 24 25 26 27 4 28 29 30 31 4 27 28 31 24 4 25 30 29 26 4 26 29 28 27 4 24 31 30 25 6 4 32 33 34 35 4 36 37 38 39 4 35 36 39 32 4 33 38 37 34 4 34 37 36 35 4 32 39 38 33 6 4 40 41 42 43 4 44 45 46 47 4 43 44 47 40 4 41 46 45 42 4 42 45 44 43 4 40 47 46 41 6 4 48 49 50 51 4 52 53 54 55 4 51 52 55 48 4 49 54 53 50 4 50 53 52 51 4 48 55 54 49 6 4 56 57 58 59 4 60 61 62 63 4 59 60 63 56 4 57 62 61 58 4 58 61 60 59 4 56 63 62 57 6 4 64 65 66 67 4 68 69 70 71 4 67 68 71 64 4 65 70 69 66 4 66 69 68 67 4 64 71 70 65 6 4 72 73 74 75 4 76 77 78 79 4 75 76 79 72 4 73 78 77 74 4 74 77 76 75 4 72 79 78 73 6 4 80 81 82 83 4 84 85 86 87 4 83 84 87 80 4 81 86 85 82 4 82 85 84 83 4 80 87 86 81 6 4 88 89 90 91 4 92 93 94 95 4 91 92 95 88 4 89 94 93 90 4 90 93 92 91 4 88 95 94 89 6 4 96 97 98 99 4 100 101 102 103 4 99 100 103 96 4 97 102 101 98 4 98 101 100 99 4 96 103 102 97 6 4 104 105 106 107 4 108 109 110 111 4 107 108 111 104 4 105 110 109 106 4 106 109 108 107 4 104 111 110 105 6 4 112 113 114 115 4 116 117 118 119 4 115 116 119 112 4 113 118 117 114 4 114 117 116 115 4 112 119 118 113 6 4 120 121 122 123 4 124 125 126 127 4 123 124 127 120 4 121 126 125 122 4 122 125 124 123 4 120 127 126 121 6 4 128 129 130 131 4 132 133 134 135 4 131 132 135 128 4 129 134 133 130 4 130 133 132 131 4 128 135 134 129 6 4 136 137 138 139 4 140 141 142 143 4 139 140 143 136 4 137 142 141 138 4 138 141 140 139 4 136 143 142 137 6 4 144 145 146 147 4 148 149 150 151 4 147 148 151 144 4 145 150 149 146 4 146 149 148 147 4 144 151 150 145 6 4 152 153 154 155 4 156 157 158 159 4 155 156 159 152 4 153 158 157 154 4 154 157 156 155 4 152 159 158 153 6 4 160 161 162 163 4 164 165 166 167 4 163 164 167 160 4 161 166 165 162 4 162 165 164 163 4 160 167 166 161 6 4 168 169 170 171 4 172 173 174 175 4 171 172 175 168 4 169 174 173 170 4 170 173 172 171 4 168 175 174 169 6 4 176 177 178 179 4 180 181 182 183 4 179 180 183 176 4 177 182 181 178 4 178 181 180 179 4 176 183 182 177 6 4 184 185 186 187 4 188 189 190 191 4 187 188 191 184 4 185 190 189 186 4 186 189 188 187 4 184 191 190 185 26 6 192 193 194 195 196 197 6 198 199 200 201 202 203 6 204 205 206 207 208 209 6 210 211 212 213 214 215 8 216 217 218 219 220 221 222 223 8 224 225 226 227 228 229 230 231 4 209 208 197 196 4 201 200 211 210 4 232 223 222 233 4 234 235 227 226 4 220 236 237 221 4 228 238 239 229 8 239 238 215 214 232 233 195 194 8 237 236 203 202 235 234 205 204 4 231 230 193 192 4 199 198 219 218 4 206 225 224 207 4 212 217 216 213 8 233 222 221 237 204 209 196 195 8 227 235 202 201 210 215 238 228 5 214 213 216 223 232 5 205 234 226 225 206 6 208 207 224 231 192 197 6 211 200 199 218 217 212 5 230 229 239 194 193 5 219 198 203 236 220 26 6 240 241 242 243 244 245 6 246 247 248 249 250 251 6 252 253 254 255 256 257 6 258 259 260 261 262 263 8 264 265 266 267 268 269 270 271 8 272 273 274 275 276 277 278 279 4 257 256 245 244 4 249 248 259 258 4 280 271 270 281 4 282 283 275 274 4 268 284 285 269 4 276 286 287 277 8 287 286 263 262 280 281 243 242 8 285 284 251 250 283 282 253 252 4 279 278 241 240 4 247 246 267 266 4 254 273 272 255 4 260 265 264 261 8 281 270 269 285 252 257 244 243 8 275 283 250 249 258 263 286 276 5 262 261 264 271 280 5 253 282 274 273 254 6 256 255 272 279 240 245 6 259 248 247 266 265 260 5 278 277 287 242 241 5 267 246 251 284 268 26 6 288 289 290 291 292 293 6 294 295 296 297 298 299 6 300 301 302 303 304 305 6 306 307 308 309 310 311 8 312 313 314 315 316 317 318 319 8 320 321 322 323 324 325 326 327 4 305 304 293 292 4 297 296 307 306 4 328 319 318 329 4 330 331 323 322 4 316 332 333 317 4 324 334 335 325 8 335 334 311 310 328 329 291 290 8 333 332 299 298 331 330 301 300 4 327 326 289 288 4 295 294 315 314 4 302 321 320 303 4 308 313 312 309 8 329 318 317 333 300 305 292 291 8 323 331 298 297 306 311 334 324 5 310 309 312 319 328 5 301 330 322 321 302 6 304 303 320 327 288 293 6 307 296 295 314 313 308 5 326 325 335 290 289 5 315 294 299 332 316 
        </DataArray>
        <DataArray type="Int32" Name="faceoffsets" format="ascii">
31 62 93 124 155 186 217 248 279 310 341 372 403 434 465 496 527 558 589 620 651 682 713 744 915 1086 1257 
        </DataArray>
      </Cells>

  <CellData>
        <DataArray type="Int32" Name="element_created_on_rank" format="ascii">
0
0
0
0
0
0
0
0
0
0
0
0
0
0
0
0
0
0
0
0
0
0
0
0
0
0
0
        </DataArray>
        <DataArray type="Int32" Name="element_id" format="ascii">
0
1
2
3
4
5
6
7
8
9
10
11
12
13
14
15
16
17
18
19
20
21
22
23
24
25
26
        </DataArray>
        <DataArray type="Int32" Name="primitive_predicate_flag" format="ascii">
0
0
0
0
0
0
0
0
0
0
0
0
0
0
0
0
0
0
0
0
0
0
0
0
0
0
0
        </DataArray>
      </CellData>

    </Piece>
  </UnstructuredGrid>
</VTKFile>
