<?xml version="1.0" ?> 
<!-- 
# vtk DataFile Version 3.0
-->
<VTKFile type="UnstructuredGrid" version="0.1" compressor="vtkZLibDataCompressor" byte_order="LittleEndian">
  <UnstructuredGrid>
    <FieldData>
      <DataArray type="Float64" Name="TIME" NumberOfTuples="1" format="ascii">
9.500000000000000e+00 
      </DataArray>
    </FieldData>

    <Piece NumberOfPoints="160" NumberOfCells="20" >
      <Points>
        <DataArray type="Float64" NumberOfComponents="3" format="ascii">
-1.000000000000000e+00 -1.000000000000000e+00 0.000000000000000e+00
-1.000000000000000e+00 -1.000000000000000e+00 -1.000000000000000e+00
-1.000000000000000e+00 0.000000000000000e+00 -1.000000000000000e+00
-1.000000000000000e+00 0.000000000000000e+00 0.000000000000000e+00
0.000000000000000e+00 -1.000000000000000e+00 0.000000000000000e+00
0.000000000000000e+00 -1.000000000000000e+00 -1.000000000000000e+00
0.000000000000000e+00 0.000000000000000e+00 -1.000000000000000e+00
0.000000000000000e+00 0.000000000000000e+00 0.000000000000000e+00
-1.000000000000000e+00 -1.000000000000000e+00 -1.000000000000000e+00
-1.000000000000000e+00 -1.000000000000000e+00 -2.000000000000000e+00
-1.000000000000000e+00 0.000000000000000e+00 -2.000000000000000e+00
-1.000000000000000e+00 0.000000000000000e+00 -1.000000000000000e+00
0.000000000000000e+00 -1.000000000000000e+00 -1.000000000000000e+00
0.000000000000000e+00 -1.000000000000000e+00 -2.000000000000000e+00
0.000000000000000e+00 0.000000000000000e+00 -2.000000000000000e+00
0.000000000000000e+00 0.000000000000000e+00 -1.000000000000000e+00
-1.000000000000000e+00 -1.000000000000000e+00 -2.000000000000000e+00
-1.000000000000000e+00 -1.000000000000000e+00 -3.000000000000000e+00
-1.000000000000000e+00 0.000000000000000e+00 -3.000000000000000e+00
-1.000000000000000e+00 0.000000000000000e+00 -2.000000000000000e+00
0.000000000000000e+00 -1.000000000000000e+00 -2.000000000000000e+00
0.000000000000000e+00 -1.000000000000000e+00 -3.000000000000000e+00
0.000000000000000e+00 0.000000000000000e+00 -3.000000000000000e+00
0.000000000000000e+00 0.000000000000000e+00 -2.000000000000000e+00
-1.000000000000000e+00 -1.000000000000000e+00 -3.000000000000000e+00
-1.000000000000000e+00 -1.000000000000000e+00 -4.000000000000000e+00
-1.000000000000000e+00 0.000000000000000e+00 -4.000000000000000e+00
-1.000000000000000e+00 0.000000000000000e+00 -3.000000000000000e+00
0.000000000000000e+00 -1.000000000000000e+00 -3.000000000000000e+00
0.000000000000000e+00 -1.000000000000000e+00 -4.000000000000000e+00
0.000000000000000e+00 0.000000000000000e+00 -4.000000000000000e+00
0.000000000000000e+00 0.000000000000000e+00 -3.000000000000000e+00
-1.000000000000000e+00 -1.000000000000000e+00 -4.000000000000000e+00
-1.000000000000000e+00 -1.000000000000000e+00 -5.000000000000000e+00
-1.000000000000000e+00 0.000000000000000e+00 -5.000000000000000e+00
-1.000000000000000e+00 0.000000000000000e+00 -4.000000000000000e+00
0.000000000000000e+00 -1.000000000000000e+00 -4.000000000000000e+00
0.000000000000000e+00 -1.000000000000000e+00 -5.000000000000000e+00
0.000000000000000e+00 0.000000000000000e+00 -5.000000000000000e+00
0.000000000000000e+00 0.000000000000000e+00 -4.000000000000000e+00
-1.000000000000000e+00 0.000000000000000e+00 0.000000000000000e+00
-1.000000000000000e+00 0.000000000000000e+00 -1.000000000000000e+00
-1.000000000000000e+00 1.000000000000000e+00 -1.000000000000000e+00
-1.000000000000000e+00 1.000000000000000e+00 0.000000000000000e+00
0.000000000000000e+00 0.000000000000000e+00 0.000000000000000e+00
0.000000000000000e+00 0.000000000000000e+00 -1.000000000000000e+00
0.000000000000000e+00 1.000000000000000e+00 -1.000000000000000e+00
0.000000000000000e+00 1.000000000000000e+00 0.000000000000000e+00
-1.000000000000000e+00 0.000000000000000e+00 -1.000000000000000e+00
-1.000000000000000e+00 0.000000000000000e+00 -2.000000000000000e+00
-1.000000000000000e+00 1.000000000000000e+00 -2.000000000000000e+00
-1.000000000000000e+00 1.000000000000000e+00 -1.000000000000000e+00
0.000000000000000e+00 0.000000000000000e+00 -1.000000000000000e+00
0.000000000000000e+00 0.000000000000000e+00 -2.000000000000000e+00
0.000000000000000e+00 1.000000000000000e+00 -2.000000000000000e+00
0.000000000000000e+00 1.000000000000000e+00 -1.000000000000000e+00
-1.000000000000000e+00 0.000000000000000e+00 -2.000000000000000e+00
-1.000000000000000e+00 0.000000000000000e+00 -3.000000000000000e+00
-1.000000000000000e+00 1.000000000000000e+00 -3.000000000000000e+00
-1.000000000000000e+00 1.000000000000000e+00 -2.000000000000000e+00
0.000000000000000e+00 0.000000000000000e+00 -2.000000000000000e+00
0.000000000000000e+00 0.000000000000000e+00 -3.000000000000000e+00
0.000000000000000e+00 1.000000000000000e+00 -3.000000000000000e+00
0.000000000000000e+00 1.000000000000000e+00 -2.000000000000000e+00
-1.000000000000000e+00 0.000000000000000e+00 -3.000000000000000e+00
-1.000000000000000e+00 0.000000000000000e+00 -4.000000000000000e+00
-1.000000000000000e+00 1.000000000000000e+00 -4.000000000000000e+00
-1.000000000000000e+00 1.000000000000000e+00 -3.000000000000000e+00
0.000000000000000e+00 0.000000000000000e+00 -3.000000000000000e+00
0.000000000000000e+00 0.000000000000000e+00 -4.000000000000000e+00
0.000000000000000e+00 1.000000000000000e+00 -4.000000000000000e+00
0.000000000000000e+00 1.000000000000000e+00 -3.000000000000000e+00
-1.000000000000000e+00 0.000000000000000e+00 -4.000000000000000e+00
-1.000000000000000e+00 0.000000000000000e+00 -5.000000000000000e+00
-1.000000000000000e+00 1.000000000000000e+00 -5.000000000000000e+00
-1.000000000000000e+00 1.000000000000000e+00 -4.000000000000000e+00
0.000000000000000e+00 0.000000000000000e+00 -4.000000000000000e+00
0.000000000000000e+00 0.000000000000000e+00 -5.000000000000000e+00
0.000000000000000e+00 1.000000000000000e+00 -5.000000000000000e+00
0.000000000000000e+00 1.000000000000000e+00 -4.000000000000000e+00
0.000000000000000e+00 -1.000000000000000e+00 0.000000000000000e+00
0.000000000000000e+00 -1.000000000000000e+00 -1.000000000000000e+00
0.000000000000000e+00 0.000000000000000e+00 -1.000000000000000e+00
0.000000000000000e+00 0.000000000000000e+00 0.000000000000000e+00
1.000000000000000e+00 -1.000000000000000e+00 0.000000000000000e+00
1.000000000000000e+00 -1.000000000000000e+00 -1.000000000000000e+00
1.000000000000000e+00 0.000000000000000e+00 -1.000000000000000e+00
1.000000000000000e+00 0.000000000000000e+00 0.000000000000000e+00
0.000000000000000e+00 -1.000000000000000e+00 -1.000000000000000e+00
0.000000000000000e+00 -1.000000000000000e+00 -2.000000000000000e+00
0.000000000000000e+00 0.000000000000000e+00 -2.000000000000000e+00
0.000000000000000e+00 0.000000000000000e+00 -1.000000000000000e+00
1.000000000000000e+00 -1.000000000000000e+00 -1.000000000000000e+00
1.000000000000000e+00 -1.000000000000000e+00 -2.000000000000000e+00
1.000000000000000e+00 0.000000000000000e+00 -2.000000000000000e+00
1.000000000000000e+00 0.000000000000000e+00 -1.000000000000000e+00
0.000000000000000e+00 -1.000000000000000e+00 -2.000000000000000e+00
0.000000000000000e+00 -1.000000000000000e+00 -3.000000000000000e+00
0.000000000000000e+00 0.000000000000000e+00 -3.000000000000000e+00
0.000000000000000e+00 0.000000000000000e+00 -2.000000000000000e+00
1.000000000000000e+00 -1.000000000000000e+00 -2.000000000000000e+00
1.000000000000000e+00 -1.000000000000000e+00 -3.000000000000000e+00
1.000000000000000e+00 0.000000000000000e+00 -3.000000000000000e+00
1.000000000000000e+00 0.000000000000000e+00 -2.000000000000000e+00
0.000000000000000e+00 -1.000000000000000e+00 -3.000000000000000e+00
0.000000000000000e+00 -1.000000000000000e+00 -4.000000000000000e+00
0.000000000000000e+00 0.000000000000000e+00 -4.000000000000000e+00
0.000000000000000e+00 0.000000000000000e+00 -3.000000000000000e+00
1.000000000000000e+00 -1.000000000000000e+00 -3.000000000000000e+00
1.000000000000000e+00 -1.000000000000000e+00 -4.000000000000000e+00
1.000000000000000e+00 0.000000000000000e+00 -4.000000000000000e+00
1.000000000000000e+00 0.000000000000000e+00 -3.000000000000000e+00
0.000000000000000e+00 -1.000000000000000e+00 -4.000000000000000e+00
0.000000000000000e+00 -1.000000000000000e+00 -5.000000000000000e+00
0.000000000000000e+00 0.000000000000000e+00 -5.000000000000000e+00
0.000000000000000e+00 0.000000000000000e+00 -4.000000000000000e+00
1.000000000000000e+00 -1.000000000000000e+00 -4.000000000000000e+00
1.000000000000000e+00 -1.000000000000000e+00 -5.000000000000000e+00
1.000000000000000e+00 0.000000000000000e+00 -5.000000000000000e+00
1.000000000000000e+00 0.000000000000000e+00 -4.000000000000000e+00
0.000000000000000e+00 0.000000000000000e+00 0.000000000000000e+00
0.000000000000000e+00 0.000000000000000e+00 -1.000000000000000e+00
0.000000000000000e+00 1.000000000000000e+00 -1.000000000000000e+00
0.000000000000000e+00 1.000000000000000e+00 0.000000000000000e+00
1.000000000000000e+00 0.000000000000000e+00 0.000000000000000e+00
1.000000000000000e+00 0.000000000000000e+00 -1.000000000000000e+00
1.000000000000000e+00 1.000000000000000e+00 -1.000000000000000e+00
1.000000000000000e+00 1.000000000000000e+00 0.000000000000000e+00
0.000000000000000e+00 0.000000000000000e+00 -1.000000000000000e+00
0.000000000000000e+00 0.000000000000000e+00 -2.000000000000000e+00
0.000000000000000e+00 1.000000000000000e+00 -2.000000000000000e+00
0.000000000000000e+00 1.000000000000000e+00 -1.000000000000000e+00
1.000000000000000e+00 0.000000000000000e+00 -1.000000000000000e+00
1.000000000000000e+00 0.000000000000000e+00 -2.000000000000000e+00
1.000000000000000e+00 1.000000000000000e+00 -2.000000000000000e+00
1.000000000000000e+00 1.000000000000000e+00 -1.000000000000000e+00
0.000000000000000e+00 0.000000000000000e+00 -2.000000000000000e+00
0.000000000000000e+00 0.000000000000000e+00 -3.000000000000000e+00
0.000000000000000e+00 1.000000000000000e+00 -3.000000000000000e+00
0.000000000000000e+00 1.000000000000000e+00 -2.000000000000000e+00
1.000000000000000e+00 0.000000000000000e+00 -2.000000000000000e+00
1.000000000000000e+00 0.000000000000000e+00 -3.000000000000000e+00
1.000000000000000e+00 1.000000000000000e+00 -3.000000000000000e+00
1.000000000000000e+00 1.000000000000000e+00 -2.000000000000000e+00
0.000000000000000e+00 0.000000000000000e+00 -3.000000000000000e+00
0.000000000000000e+00 0.000000000000000e+00 -4.000000000000000e+00
0.000000000000000e+00 1.000000000000000e+00 -4.000000000000000e+00
0.000000000000000e+00 1.000000000000000e+00 -3.000000000000000e+00
1.000000000000000e+00 0.000000000000000e+00 -3.000000000000000e+00
1.000000000000000e+00 0.000000000000000e+00 -4.000000000000000e+00
1.000000000000000e+00 1.000000000000000e+00 -4.000000000000000e+00
1.000000000000000e+00 1.000000000000000e+00 -3.000000000000000e+00
0.000000000000000e+00 0.000000000000000e+00 -4.000000000000000e+00
0.000000000000000e+00 0.000000000000000e+00 -5.000000000000000e+00
0.000000000000000e+00 1.000000000000000e+00 -5.000000000000000e+00
0.000000000000000e+00 1.000000000000000e+00 -4.000000000000000e+00
1.000000000000000e+00 0.000000000000000e+00 -4.000000000000000e+00
1.000000000000000e+00 0.000000000000000e+00 -5.000000000000000e+00
1.000000000000000e+00 1.000000000000000e+00 -5.000000000000000e+00
1.000000000000000e+00 1.000000000000000e+00 -4.000000000000000e+00
        </DataArray>
      </Points>

      <Cells>
        <DataArray type="Int32" Name="connectivity" format="ascii">
0 1 2 3 4 5 6 7 8 9 10 11 12 13 14 15 16 17 18 19 20 21 22 23 24 25 26 27 28 29 30 31 32 33 34 35 36 37 38 39 40 41 42 43 44 45 46 47 48 49 50 51 52 53 54 55 56 57 58 59 60 61 62 63 64 65 66 67 68 69 70 71 72 73 74 75 76 77 78 79 80 81 82 83 84 85 86 87 88 89 90 91 92 93 94 95 96 97 98 99 100 101 102 103 104 105 106 107 108 109 110 111 112 113 114 115 116 117 118 119 120 121 122 123 124 125 126 127 128 129 130 131 132 133 134 135 136 137 138 139 140 141 142 143 144 145 146 147 148 149 150 151 152 153 154 155 156 157 158 159 
        </DataArray>
        <DataArray type="Int32" Name="offsets" format="ascii">
8 16 24 32 40 48 56 64 72 80 88 96 104 112 120 128 136 144 152 160 
        </DataArray>
        <DataArray type="UInt8" Name="types" format="ascii">
12 12 12 12 12 12 12 12 12 12 12 12 12 12 12 12 12 12 12 12 
        </DataArray>
      </Cells>

  <PointData>
        <DataArray type="Float64" Name="accumulated_plastic_strain" format="ascii">
0.000000000000000e+00
0.000000000000000e+00
0.000000000000000e+00
-1.573100942178449e-04
0.000000000000000e+00
0.000000000000000e+00
0.000000000000000e+00
-1.670440801551946e-04
0.000000000000000e+00
0.000000000000000e+00
0.000000000000000e+00
0.000000000000000e+00
0.000000000000000e+00
0.000000000000000e+00
0.000000000000000e+00
0.000000000000000e+00
0.000000000000000e+00
0.000000000000000e+00
0.000000000000000e+00
0.000000000000000e+00
0.000000000000000e+00
0.000000000000000e+00
0.000000000000000e+00
0.000000000000000e+00
0.000000000000000e+00
0.000000000000000e+00
0.000000000000000e+00
0.000000000000000e+00
0.000000000000000e+00
0.000000000000000e+00
0.000000000000000e+00
0.000000000000000e+00
0.000000000000000e+00
0.000000000000000e+00
0.000000000000000e+00
0.000000000000000e+00
0.000000000000000e+00
0.000000000000000e+00
0.000000000000000e+00
0.000000000000000e+00
-1.573100942178449e-04
0.000000000000000e+00
0.000000000000000e+00
1.174178528328889e-03
-1.670440801551946e-04
0.000000000000000e+00
0.000000000000000e+00
1.246833988485590e-03
0.000000000000000e+00
0.000000000000000e+00
0.000000000000000e+00
0.000000000000000e+00
0.000000000000000e+00
0.000000000000000e+00
0.000000000000000e+00
0.000000000000000e+00
0.000000000000000e+00
0.000000000000000e+00
0.000000000000000e+00
0.000000000000000e+00
0.000000000000000e+00
0.000000000000000e+00
0.000000000000000e+00
0.000000000000000e+00
0.000000000000000e+00
0.000000000000000e+00
0.000000000000000e+00
0.000000000000000e+00
0.000000000000000e+00
0.000000000000000e+00
0.000000000000000e+00
0.000000000000000e+00
0.000000000000000e+00
0.000000000000000e+00
0.000000000000000e+00
0.000000000000000e+00
0.000000000000000e+00
0.000000000000000e+00
0.000000000000000e+00
0.000000000000000e+00
0.000000000000000e+00
0.000000000000000e+00
0.000000000000000e+00
-1.670440801551946e-04
0.000000000000000e+00
0.000000000000000e+00
0.000000000000000e+00
-1.573100942178533e-04
0.000000000000000e+00
0.000000000000000e+00
0.000000000000000e+00
0.000000000000000e+00
0.000000000000000e+00
0.000000000000000e+00
0.000000000000000e+00
0.000000000000000e+00
0.000000000000000e+00
0.000000000000000e+00
0.000000000000000e+00
0.000000000000000e+00
0.000000000000000e+00
0.000000000000000e+00
0.000000000000000e+00
0.000000000000000e+00
0.000000000000000e+00
0.000000000000000e+00
0.000000000000000e+00
0.000000000000000e+00
0.000000000000000e+00
0.000000000000000e+00
0.000000000000000e+00
0.000000000000000e+00
0.000000000000000e+00
0.000000000000000e+00
0.000000000000000e+00
0.000000000000000e+00
0.000000000000000e+00
0.000000000000000e+00
0.000000000000000e+00
0.000000000000000e+00
-1.670440801551946e-04
0.000000000000000e+00
0.000000000000000e+00
1.246833988485590e-03
-1.573100942178533e-04
0.000000000000000e+00
0.000000000000000e+00
1.174178528328951e-03
0.000000000000000e+00
0.000000000000000e+00
0.000000000000000e+00
0.000000000000000e+00
0.000000000000000e+00
0.000000000000000e+00
0.000000000000000e+00
0.000000000000000e+00
0.000000000000000e+00
0.000000000000000e+00
0.000000000000000e+00
0.000000000000000e+00
0.000000000000000e+00
0.000000000000000e+00
0.000000000000000e+00
0.000000000000000e+00
0.000000000000000e+00
0.000000000000000e+00
0.000000000000000e+00
0.000000000000000e+00
0.000000000000000e+00
0.000000000000000e+00
0.000000000000000e+00
0.000000000000000e+00
0.000000000000000e+00
0.000000000000000e+00
0.000000000000000e+00
0.000000000000000e+00
0.000000000000000e+00
0.000000000000000e+00
0.000000000000000e+00
0.000000000000000e+00
        </DataArray>
        <DataArray type="Float64" Name="displacement" NumberOfComponents="3" format="ascii">
-6.452661330240879e-02 -1.647318628888737e+00 5.708990910510653e-01
-4.953606617056678e-02 -2.320596660860924e+00 6.444434838896321e-01
4.413254394351137e-04 -2.314019552659341e+00 -3.824807341005540e-02
2.033146205314817e-03 -1.639737929243176e+00 -3.614301526706358e-02
6.595701664495999e-16 -1.679126683210400e+00 5.760472408802075e-01
9.462425199555407e-16 -2.345266667157480e+00 6.490292755503270e-01
6.161897125552883e-16 -2.338744711553414e+00 -3.809096354706756e-02
5.411627605489010e-16 -1.671356564312188e+00 -3.626041070480258e-02
-4.953606617056678e-02 -2.320596660860924e+00 6.444434838896321e-01
-3.633395726934496e-02 -3.057669204109624e+00 7.005716317967996e-01
2.453959145381654e-05 -3.052184575527976e+00 -3.856425347692550e-02
4.413254394351137e-04 -2.314019552659341e+00 -3.824807341005540e-02
9.462425199555407e-16 -2.345266667157480e+00 6.490292755503270e-01
8.524498532581008e-16 -3.075558796613374e+00 7.045358507033851e-01
8.202664967083237e-16 -3.070673009474941e+00 -3.851803881213603e-02
6.161897125552883e-16 -2.338744711553414e+00 -3.809096354706756e-02
-3.633395726934496e-02 -3.057669204109624e+00 7.005716317967996e-01
-2.321966325861288e-02 -3.842955272254569e+00 7.405832782967499e-01
-2.573033048636336e-04 -3.838148314837075e+00 -3.766682189139903e-02
2.453959145381654e-05 -3.052184575527976e+00 -3.856425347692550e-02
8.524498532581008e-16 -3.075558796613374e+00 7.045358507033851e-01
7.014124299451364e-16 -3.853551219133910e+00 7.431353579899170e-01
7.647667628799945e-16 -3.850635391717262e+00 -3.877426349833731e-02
8.202664967083237e-16 -3.070673009474941e+00 -3.851803881213603e-02
-2.321966325861288e-02 -3.842955272254569e+00 7.405832782967499e-01
-1.311689652473608e-02 -4.658147042619155e+00 7.649601509095475e-01
-7.349450245739782e-05 -4.656215686961162e+00 -3.584236071674517e-02
-2.573033048636336e-04 -3.838148314837075e+00 -3.766682189139903e-02
7.014124299451364e-16 -3.853551219133910e+00 7.431353579899170e-01
8.566007685654884e-16 -4.664582557392571e+00 7.651593635518233e-01
8.046667011794975e-16 -4.664479499958723e+00 -3.956820694601926e-02
7.647667628799945e-16 -3.850635391717262e+00 -3.877426349833731e-02
-1.311689652473608e-02 -4.658147042619155e+00 7.649601509095475e-01
-1.416382701542785e-02 -5.483886995256582e+00 7.765218893000742e-01
-1.051234708535223e-02 -5.494435777928536e+00 -3.804914255738677e-02
-7.349450245739782e-05 -4.656215686961162e+00 -3.584236071674517e-02
8.566007685654884e-16 -4.664582557392571e+00 7.651593635518233e-01
1.353953489088634e-15 -5.483201385999533e+00 7.754991098859845e-01
1.091008859814525e-15 -5.491525678648274e+00 -4.059016499524956e-02
8.046667011794975e-16 -4.664479499958723e+00 -3.956820694601926e-02
2.033146205314817e-03 -1.639737929243176e+00 -3.614301526706358e-02
4.413254394351137e-04 -2.314019552659341e+00 -3.824807341005540e-02
4.856988690953095e-02 -2.321506417279850e+00 -7.217322380270640e-01
6.017201422223509e-02 -1.649902962959793e+00 -6.496317670671177e-01
5.411627605489010e-16 -1.671356564312188e+00 -3.626041070480258e-02
6.161897125552883e-16 -2.338744711553414e+00 -3.809096354706756e-02
5.659790122246220e-16 -2.345821962422117e+00 -7.252011295281552e-01
3.968582640325199e-16 -1.680430999335507e+00 -6.540477486471488e-01
4.413254394351137e-04 -2.314019552659341e+00 -3.824807341005540e-02
2.453959145381654e-05 -3.052184575527976e+00 -3.856425347692550e-02
3.720314032242287e-02 -3.057129615146613e+00 -7.778655414647861e-01
4.856988690953095e-02 -2.321506417279850e+00 -7.217322380270640e-01
6.161897125552883e-16 -2.338744711553414e+00 -3.809096354706756e-02
8.202664967083237e-16 -3.070673009474941e+00 -3.851803881213603e-02
7.078128029419913e-16 -3.075931115857711e+00 -7.811845146271237e-01
5.659790122246220e-16 -2.345821962422117e+00 -7.252011295281552e-01
2.453959145381654e-05 -3.052184575527976e+00 -3.856425347692550e-02
-2.573033048636336e-04 -3.838148314837075e+00 -3.766682189139903e-02
2.618365987337638e-02 -3.840683744970204e+00 -8.184210300359953e-01
3.720314032242287e-02 -3.057129615146613e+00 -7.778655414647861e-01
8.202664967083237e-16 -3.070673009474941e+00 -3.851803881213603e-02
7.647667628799945e-16 -3.850635391717262e+00 -3.877426349833731e-02
9.474282098585249e-16 -3.854750293929617e+00 -8.224868367490602e-01
7.078128029419913e-16 -3.075931115857711e+00 -7.811845146271237e-01
-2.573033048636336e-04 -3.838148314837075e+00 -3.766682189139903e-02
-7.349450245739782e-05 -4.656215686961162e+00 -3.584236071674517e-02
1.684923006470898e-02 -4.656718897981056e+00 -8.443955628674659e-01
2.618365987337638e-02 -3.840683744970204e+00 -8.184210300359953e-01
7.647667628799945e-16 -3.850635391717262e+00 -3.877426349833731e-02
8.046667011794975e-16 -4.664479499958723e+00 -3.956820694601926e-02
6.807419751607589e-16 -4.666982263894948e+00 -8.504516119299689e-01
9.474282098585249e-16 -3.854750293929617e+00 -8.224868367490602e-01
-7.349450245739782e-05 -4.656215686961162e+00 -3.584236071674517e-02
-1.051234708535223e-02 -5.494435777928536e+00 -3.804914255738677e-02
-5.415742243460196e-03 -5.519190832672550e+00 -8.642964737057370e-01
1.684923006470898e-02 -4.656718897981056e+00 -8.443955628674659e-01
8.046667011794975e-16 -4.664479499958723e+00 -3.956820694601926e-02
1.091008859814525e-15 -5.491525678648274e+00 -4.059016499524956e-02
5.663772641265275e-16 -5.505693531456020e+00 -8.660703606602037e-01
6.807419751607589e-16 -4.666982263894948e+00 -8.504516119299689e-01
6.595701664495999e-16 -1.679126683210400e+00 5.760472408802075e-01
9.462425199555407e-16 -2.345266667157480e+00 6.490292755503270e-01
6.161897125552883e-16 -2.338744711553414e+00 -3.809096354706756e-02
5.411627605489010e-16 -1.671356564312188e+00 -3.626041070480258e-02
6.452661330240991e-02 -1.647318628888737e+00 5.708990910510656e-01
4.953606617056866e-02 -2.320596660860924e+00 6.444434838896324e-01
-4.413254394339195e-04 -2.314019552659341e+00 -3.824807341005506e-02
-2.033146205313735e-03 -1.639737929243176e+00 -3.614301526706325e-02
9.462425199555407e-16 -2.345266667157480e+00 6.490292755503270e-01
8.524498532581008e-16 -3.075558796613374e+00 7.045358507033851e-01
8.202664967083237e-16 -3.070673009474941e+00 -3.851803881213603e-02
6.161897125552883e-16 -2.338744711553414e+00 -3.809096354706756e-02
4.953606617056866e-02 -2.320596660860924e+00 6.444434838896324e-01
3.633395726934681e-02 -3.057669204109624e+00 7.005716317967997e-01
-2.453959145247115e-05 -3.052184575527975e+00 -3.856425347692529e-02
-4.413254394339195e-04 -2.314019552659341e+00 -3.824807341005506e-02
8.524498532581008e-16 -3.075558796613374e+00 7.045358507033851e-01
7.014124299451364e-16 -3.853551219133910e+00 7.431353579899170e-01
7.647667628799945e-16 -3.850635391717262e+00 -3.877426349833731e-02
8.202664967083237e-16 -3.070673009474941e+00 -3.851803881213603e-02
3.633395726934681e-02 -3.057669204109624e+00 7.005716317967997e-01
2.321966325861470e-02 -3.842955272254569e+00 7.405832782967501e-01
2.573033048651611e-04 -3.838148314837075e+00 -3.766682189139921e-02
-2.453959145247115e-05 -3.052184575527975e+00 -3.856425347692529e-02
7.014124299451364e-16 -3.853551219133910e+00 7.431353579899170e-01
8.566007685654884e-16 -4.664582557392571e+00 7.651593635518233e-01
8.046667011794975e-16 -4.664479499958723e+00 -3.956820694601926e-02
7.647667628799945e-16 -3.850635391717262e+00 -3.877426349833731e-02
2.321966325861470e-02 -3.842955272254569e+00 7.405832782967501e-01
1.311689652473761e-02 -4.658147042619155e+00 7.649601509095478e-01
7.349450245935654e-05 -4.656215686961161e+00 -3.584236071674483e-02
2.573033048651611e-04 -3.838148314837075e+00 -3.766682189139921e-02
8.566007685654884e-16 -4.664582557392571e+00 7.651593635518233e-01
1.353953489088634e-15 -5.483201385999533e+00 7.754991098859845e-01
1.091008859814525e-15 -5.491525678648274e+00 -4.059016499524956e-02
8.046667011794975e-16 -4.664479499958723e+00 -3.956820694601926e-02
1.311689652473761e-02 -4.658147042619155e+00 7.649601509095478e-01
1.416382701543016e-02 -5.483886995256581e+00 7.765218893000749e-01
1.051234708535369e-02 -5.494435777928536e+00 -3.804914255738693e-02
7.349450245935654e-05 -4.656215686961161e+00 -3.584236071674483e-02
5.411627605489010e-16 -1.671356564312188e+00 -3.626041070480258e-02
6.161897125552883e-16 -2.338744711553414e+00 -3.809096354706756e-02
5.659790122246220e-16 -2.345821962422117e+00 -7.252011295281552e-01
3.968582640325199e-16 -1.680430999335507e+00 -6.540477486471488e-01
-2.033146205313735e-03 -1.639737929243176e+00 -3.614301526706325e-02
-4.413254394339195e-04 -2.314019552659341e+00 -3.824807341005506e-02
-4.856988690952971e-02 -2.321506417279850e+00 -7.217322380270635e-01
-6.017201422223421e-02 -1.649902962959793e+00 -6.496317670671174e-01
6.161897125552883e-16 -2.338744711553414e+00 -3.809096354706756e-02
8.202664967083237e-16 -3.070673009474941e+00 -3.851803881213603e-02
7.078128029419913e-16 -3.075931115857711e+00 -7.811845146271237e-01
5.659790122246220e-16 -2.345821962422117e+00 -7.252011295281552e-01
-4.413254394339195e-04 -2.314019552659341e+00 -3.824807341005506e-02
-2.453959145247115e-05 -3.052184575527975e+00 -3.856425347692529e-02
-3.720314032242140e-02 -3.057129615146613e+00 -7.778655414647863e-01
-4.856988690952971e-02 -2.321506417279850e+00 -7.217322380270635e-01
8.202664967083237e-16 -3.070673009474941e+00 -3.851803881213603e-02
7.647667628799945e-16 -3.850635391717262e+00 -3.877426349833731e-02
9.474282098585249e-16 -3.854750293929617e+00 -8.224868367490602e-01
7.078128029419913e-16 -3.075931115857711e+00 -7.811845146271237e-01
-2.453959145247115e-05 -3.052184575527975e+00 -3.856425347692529e-02
2.573033048651611e-04 -3.838148314837075e+00 -3.766682189139921e-02
-2.618365987337487e-02 -3.840683744970203e+00 -8.184210300359955e-01
-3.720314032242140e-02 -3.057129615146613e+00 -7.778655414647863e-01
7.647667628799945e-16 -3.850635391717262e+00 -3.877426349833731e-02
8.046667011794975e-16 -4.664479499958723e+00 -3.956820694601926e-02
6.807419751607589e-16 -4.666982263894948e+00 -8.504516119299689e-01
9.474282098585249e-16 -3.854750293929617e+00 -8.224868367490602e-01
2.573033048651611e-04 -3.838148314837075e+00 -3.766682189139921e-02
7.349450245935654e-05 -4.656215686961161e+00 -3.584236071674483e-02
-1.684923006470722e-02 -4.656718897981056e+00 -8.443955628674660e-01
-2.618365987337487e-02 -3.840683744970203e+00 -8.184210300359955e-01
8.046667011794975e-16 -4.664479499958723e+00 -3.956820694601926e-02
1.091008859814525e-15 -5.491525678648274e+00 -4.059016499524956e-02
5.663772641265275e-16 -5.505693531456020e+00 -8.660703606602037e-01
6.807419751607589e-16 -4.666982263894948e+00 -8.504516119299689e-01
7.349450245935654e-05 -4.656215686961161e+00 -3.584236071674483e-02
1.051234708535369e-02 -5.494435777928536e+00 -3.804914255738693e-02
5.415742243461998e-03 -5.519190832672549e+00 -8.642964737057364e-01
-1.684923006470722e-02 -4.656718897981056e+00 -8.443955628674660e-01
        </DataArray>
        <DataArray type="Float64" Name="nodal_GL_strains_xyz" NumberOfComponents="6" format="ascii">
6.452661330240947e-02 7.580699645561491e-03 -8.366715463752834e-02 1.737585259303068e-02 1.242883554479950e-02 -5.148703869110262e-03
4.953606617056774e-02 6.577108201582343e-03 -6.483627037286713e-02 1.265369265672355e-02 1.124186515537801e-02 -4.755268177918630e-03
-4.413254394344991e-04 -4.548782094629120e-04 1.210619104930964e-03 1.216390882298809e-02 1.156773109202583e-02 5.807065849591944e-04
-2.033146205314279e-03 -1.292167035528066e-03 3.699880147696107e-03 1.536533934665487e-02 1.175262333483358e-02 1.205832063383858e-03
6.452661330240936e-02 7.770118898211763e-03 -8.304958559252856e-02 -5.898059818321144e-17 5.762726263131973e-03 -7.264154555652880e-17
4.953606617056772e-02 6.521955604065228e-03 -6.424430491158876e-02 -2.393918396847994e-16 5.547908802046217e-03 -2.493664996716660e-18
-4.413254394345177e-04 -2.776476323187539e-04 1.128814053666741e-03 -1.669671345627677e-17 6.271510021067592e-03 2.052530237786621e-17
-2.033146205314279e-03 -6.521580625535441e-04 3.445614257512121e-03 -1.075528555105620e-16 5.500027405527592e-03 5.295649986233886e-17
4.953606617056774e-02 6.577108201582343e-03 -6.483627037286713e-02 1.265369265672355e-02 1.124186515537801e-02 -4.755268177918630e-03
3.633395726934582e-02 5.484628581649111e-03 -4.806989720355889e-02 9.234452178524141e-03 1.102171021154853e-02 -4.596991274695737e-03
-2.453959145299803e-05 2.697944815053146e-04 -2.906257593281611e-04 9.140057424459827e-03 1.142289722903702e-02 1.977645184694368e-04
-4.413254394344991e-04 -4.548782094629120e-04 1.210619104930964e-03 1.216390882298809e-02 1.156773109202583e-02 5.807065849591944e-04
4.953606617056772e-02 6.521955604065228e-03 -6.424430491158876e-02 -2.393918396847994e-16 5.547908802046217e-03 -2.493664996716660e-18
3.633395726934589e-02 4.885787138433339e-03 -4.705304121979507e-02 6.678685382510707e-17 5.544193236346948e-03 1.224064252736135e-16
-2.453959145314410e-05 -1.861596221683154e-04 3.416499756348846e-04 2.072994553792284e-16 6.542578708334785e-03 -3.681205188767189e-18
-4.413254394345177e-04 -2.776476323187539e-04 1.128814053666741e-03 -1.669671345627677e-17 6.271510021067592e-03 2.052530237786621e-17
3.633395726934582e-02 5.484628581649111e-03 -4.806989720355889e-02 9.234452178524141e-03 1.102171021154853e-02 -4.596991274695737e-03
2.321966325861360e-02 4.806957417492977e-03 -3.219425955637394e-02 6.183206537204841e-03 1.099440953330831e-02 -4.528225339568704e-03
2.573033048643948e-04 1.135763642182341e-03 -1.360946380090145e-03 6.107292342903401e-03 1.125670077511033e-02 -5.292122799913407e-04
-2.453959145299803e-05 2.697944815053146e-04 -2.906257593281611e-04 9.140057424459827e-03 1.142289722903702e-02 1.977645184694368e-04
3.633395726934589e-02 4.885787138433339e-03 -4.705304121979507e-02 6.678685382510707e-17 5.544193236346948e-03 1.224064252736135e-16
2.321966325861379e-02 2.915827416647925e-03 -3.031175642421918e-02 -2.424276057677588e-16 6.301129450671776e-03 1.029449962774986e-16