<?xml version="1.0" ?> 
<!-- 
# vtk DataFile Version 3.0
-->
<VTKFile type="UnstructuredGrid" version="0.1" compressor="vtkZLibDataCompressor" byte_order="LittleEndian">
  <UnstructuredGrid>
    <FieldData>
      <DataArray type="Float64" Name="TIME" NumberOfTuples="1" format="ascii">
9.500000000000000e+00 
      </DataArray>
    </FieldData>

    <Piece NumberOfPoints="160" NumberOfCells="20" >
      <Points>
        <DataArray type="Float64" NumberOfComponents="3" format="ascii">
-1.000000000000000e+00 -1.000000000000000e+00 5.000000000000000e+00
-1.000000000000000e+00 -1.000000000000000e+00 4.000000000000000e+00
-1.000000000000000e+00 0.000000000000000e+00 4.000000000000000e+00
-1.000000000000000e+00 0.000000000000000e+00 5.000000000000000e+00
0.000000000000000e+00 -1.000000000000000e+00 5.000000000000000e+00
0.000000000000000e+00 -1.000000000000000e+00 4.000000000000000e+00
0.000000000000000e+00 0.000000000000000e+00 4.000000000000000e+00
0.000000000000000e+00 0.000000000000000e+00 5.000000000000000e+00
-1.000000000000000e+00 -1.000000000000000e+00 4.000000000000000e+00
-1.000000000000000e+00 -1.000000000000000e+00 3.000000000000000e+00
-1.000000000000000e+00 0.000000000000000e+00 3.000000000000000e+00
-1.000000000000000e+00 0.000000000000000e+00 4.000000000000000e+00
0.000000000000000e+00 -1.000000000000000e+00 4.000000000000000e+00
0.000000000000000e+00 -1.000000000000000e+00 3.000000000000000e+00
0.000000000000000e+00 0.000000000000000e+00 3.000000000000000e+00
0.000000000000000e+00 0.000000000000000e+00 4.000000000000000e+00
-1.000000000000000e+00 -1.000000000000000e+00 3.000000000000000e+00
-1.000000000000000e+00 -1.000000000000000e+00 2.000000000000000e+00
-1.000000000000000e+00 0.000000000000000e+00 2.000000000000000e+00
-1.000000000000000e+00 0.000000000000000e+00 3.000000000000000e+00
0.000000000000000e+00 -1.000000000000000e+00 3.000000000000000e+00
0.000000000000000e+00 -1.000000000000000e+00 2.000000000000000e+00
0.000000000000000e+00 0.000000000000000e+00 2.000000000000000e+00
0.000000000000000e+00 0.000000000000000e+00 3.000000000000000e+00
-1.000000000000000e+00 -1.000000000000000e+00 2.000000000000000e+00
-1.000000000000000e+00 -1.000000000000000e+00 1.000000000000000e+00
-1.000000000000000e+00 0.000000000000000e+00 1.000000000000000e+00
-1.000000000000000e+00 0.000000000000000e+00 2.000000000000000e+00
0.000000000000000e+00 -1.000000000000000e+00 2.000000000000000e+00
0.000000000000000e+00 -1.000000000000000e+00 1.000000000000000e+00
0.000000000000000e+00 0.000000000000000e+00 1.000000000000000e+00
0.000000000000000e+00 0.000000000000000e+00 2.000000000000000e+00
-1.000000000000000e+00 -1.000000000000000e+00 1.000000000000000e+00
-1.000000000000000e+00 -1.000000000000000e+00 0.000000000000000e+00
-1.000000000000000e+00 0.000000000000000e+00 0.000000000000000e+00
-1.000000000000000e+00 0.000000000000000e+00 1.000000000000000e+00
0.000000000000000e+00 -1.000000000000000e+00 1.000000000000000e+00
0.000000000000000e+00 -1.000000000000000e+00 0.000000000000000e+00
0.000000000000000e+00 0.000000000000000e+00 0.000000000000000e+00
0.000000000000000e+00 0.000000000000000e+00 1.000000000000000e+00
-1.000000000000000e+00 0.000000000000000e+00 5.000000000000000e+00
-1.000000000000000e+00 0.000000000000000e+00 4.000000000000000e+00
-1.000000000000000e+00 1.000000000000000e+00 4.000000000000000e+00
-1.000000000000000e+00 1.000000000000000e+00 5.000000000000000e+00
0.000000000000000e+00 0.000000000000000e+00 5.000000000000000e+00
0.000000000000000e+00 0.000000000000000e+00 4.000000000000000e+00
0.000000000000000e+00 1.000000000000000e+00 4.000000000000000e+00
0.000000000000000e+00 1.000000000000000e+00 5.000000000000000e+00
-1.000000000000000e+00 0.000000000000000e+00 4.000000000000000e+00
-1.000000000000000e+00 0.000000000000000e+00 3.000000000000000e+00
-1.000000000000000e+00 1.000000000000000e+00 3.000000000000000e+00
-1.000000000000000e+00 1.000000000000000e+00 4.000000000000000e+00
0.000000000000000e+00 0.000000000000000e+00 4.000000000000000e+00
0.000000000000000e+00 0.000000000000000e+00 3.000000000000000e+00
0.000000000000000e+00 1.000000000000000e+00 3.000000000000000e+00
0.000000000000000e+00 1.000000000000000e+00 4.000000000000000e+00
-1.000000000000000e+00 0.000000000000000e+00 3.000000000000000e+00
-1.000000000000000e+00 0.000000000000000e+00 2.000000000000000e+00
-1.000000000000000e+00 1.000000000000000e+00 2.000000000000000e+00
-1.000000000000000e+00 1.000000000000000e+00 3.000000000000000e+00
0.000000000000000e+00 0.000000000000000e+00 3.000000000000000e+00
0.000000000000000e+00 0.000000000000000e+00 2.000000000000000e+00
0.000000000000000e+00 1.000000000000000e+00 2.000000000000000e+00
0.000000000000000e+00 1.000000000000000e+00 3.000000000000000e+00
-1.000000000000000e+00 0.000000000000000e+00 2.000000000000000e+00
-1.000000000000000e+00 0.000000000000000e+00 1.000000000000000e+00
-1.000000000000000e+00 1.000000000000000e+00 1.000000000000000e+00
-1.000000000000000e+00 1.000000000000000e+00 2.000000000000000e+00
0.000000000000000e+00 0.000000000000000e+00 2.000000000000000e+00
0.000000000000000e+00 0.000000000000000e+00 1.000000000000000e+00
0.000000000000000e+00 1.000000000000000e+00 1.000000000000000e+00
0.000000000000000e+00 1.000000000000000e+00 2.000000000000000e+00
-1.000000000000000e+00 0.000000000000000e+00 1.000000000000000e+00
-1.000000000000000e+00 0.000000000000000e+00 0.000000000000000e+00
-1.000000000000000e+00 1.000000000000000e+00 0.000000000000000e+00
-1.000000000000000e+00 1.000000000000000e+00 1.000000000000000e+00
0.000000000000000e+00 0.000000000000000e+00 1.000000000000000e+00
0.000000000000000e+00 0.000000000000000e+00 0.000000000000000e+00
0.000000000000000e+00 1.000000000000000e+00 0.000000000000000e+00
0.000000000000000e+00 1.000000000000000e+00 1.000000000000000e+00
0.000000000000000e+00 -1.000000000000000e+00 5.000000000000000e+00
0.000000000000000e+00 -1.000000000000000e+00 4.000000000000000e+00
0.000000000000000e+00 0.000000000000000e+00 4.000000000000000e+00
0.000000000000000e+00 0.000000000000000e+00 5.000000000000000e+00
1.000000000000000e+00 -1.000000000000000e+00 5.000000000000000e+00
1.000000000000000e+00 -1.000000000000000e+00 4.000000000000000e+00
1.000000000000000e+00 0.000000000000000e+00 4.000000000000000e+00
1.000000000000000e+00 0.000000000000000e+00 5.000000000000000e+00
0.000000000000000e+00 -1.000000000000000e+00 4.000000000000000e+00
0.000000000000000e+00 -1.000000000000000e+00 3.000000000000000e+00
0.000000000000000e+00 0.000000000000000e+00 3.000000000000000e+00
0.000000000000000e+00 0.000000000000000e+00 4.000000000000000e+00
1.000000000000000e+00 -1.000000000000000e+00 4.000000000000000e+00
1.000000000000000e+00 -1.000000000000000e+00 3.000000000000000e+00
1.000000000000000e+00 0.000000000000000e+00 3.000000000000000e+00
1.000000000000000e+00 0.000000000000000e+00 4.000000000000000e+00
0.000000000000000e+00 -1.000000000000000e+00 3.000000000000000e+00
0.000000000000000e+00 -1.000000000000000e+00 2.000000000000000e+00
0.000000000000000e+00 0.000000000000000e+00 2.000000000000000e+00
0.000000000000000e+00 0.000000000000000e+00 3.000000000000000e+00
1.000000000000000e+00 -1.000000000000000e+00 3.000000000000000e+00
1.000000000000000e+00 -1.000000000000000e+00 2.000000000000000e+00
1.000000000000000e+00 0.000000000000000e+00 2.000000000000000e+00
1.000000000000000e+00 0.000000000000000e+00 3.000000000000000e+00
0.000000000000000e+00 -1.000000000000000e+00 2.000000000000000e+00
0.000000000000000e+00 -1.000000000000000e+00 1.000000000000000e+00
0.000000000000000e+00 0.000000000000000e+00 1.000000000000000e+00
0.000000000000000e+00 0.000000000000000e+00 2.000000000000000e+00
1.000000000000000e+00 -1.000000000000000e+00 2.000000000000000e+00
1.000000000000000e+00 -1.000000000000000e+00 1.000000000000000e+00
1.000000000000000e+00 0.000000000000000e+00 1.000000000000000e+00
1.000000000000000e+00 0.000000000000000e+00 2.000000000000000e+00
0.000000000000000e+00 -1.000000000000000e+00 1.000000000000000e+00
0.000000000000000e+00 -1.000000000000000e+00 0.000000000000000e+00
0.000000000000000e+00 0.000000000000000e+00 0.000000000000000e+00
0.000000000000000e+00 0.000000000000000e+00 1.000000000000000e+00
1.000000000000000e+00 -1.000000000000000e+00 1.000000000000000e+00
1.000000000000000e+00 -1.000000000000000e+00 0.000000000000000e+00
1.000000000000000e+00 0.000000000000000e+00 0.000000000000000e+00
1.000000000000000e+00 0.000000000000000e+00 1.000000000000000e+00
0.000000000000000e+00 0.000000000000000e+00 5.000000000000000e+00
0.000000000000000e+00 0.000000000000000e+00 4.000000000000000e+00
0.000000000000000e+00 1.000000000000000e+00 4.000000000000000e+00
0.000000000000000e+00 1.000000000000000e+00 5.000000000000000e+00
1.000000000000000e+00 0.000000000000000e+00 5.000000000000000e+00
1.000000000000000e+00 0.000000000000000e+00 4.000000000000000e+00
1.000000000000000e+00 1.000000000000000e+00 4.000000000000000e+00
1.000000000000000e+00 1.000000000000000e+00 5.000000000000000e+00
0.000000000000000e+00 0.000000000000000e+00 4.000000000000000e+00
0.000000000000000e+00 0.000000000000000e+00 3.000000000000000e+00
0.000000000000000e+00 1.000000000000000e+00 3.000000000000000e+00
0.000000000000000e+00 1.000000000000000e+00 4.000000000000000e+00
1.000000000000000e+00 0.000000000000000e+00 4.000000000000000e+00
1.000000000000000e+00 0.000000000000000e+00 3.000000000000000e+00
1.000000000000000e+00 1.000000000000000e+00 3.000000000000000e+00
1.000000000000000e+00 1.000000000000000e+00 4.000000000000000e+00
0.000000000000000e+00 0.000000000000000e+00 3.000000000000000e+00
0.000000000000000e+00 0.000000000000000e+00 2.000000000000000e+00
0.000000000000000e+00 1.000000000000000e+00 2.000000000000000e+00
0.000000000000000e+00 1.000000000000000e+00 3.000000000000000e+00
1.000000000000000e+00 0.000000000000000e+00 3.000000000000000e+00
1.000000000000000e+00 0.000000000000000e+00 2.000000000000000e+00
1.000000000000000e+00 1.000000000000000e+00 2.000000000000000e+00
1.000000000000000e+00 1.000000000000000e+00 3.000000000000000e+00
0.000000000000000e+00 0.000000000000000e+00 2.000000000000000e+00
0.000000000000000e+00 0.000000000000000e+00 1.000000000000000e+00
0.000000000000000e+00 1.000000000000000e+00 1.000000000000000e+00
0.000000000000000e+00 1.000000000000000e+00 2.000000000000000e+00
1.000000000000000e+00 0.000000000000000e+00 2.000000000000000e+00
1.000000000000000e+00 0.000000000000000e+00 1.000000000000000e+00
1.000000000000000e+00 1.000000000000000e+00 1.000000000000000e+00
1.000000000000000e+00 1.000000000000000e+00 2.000000000000000e+00
0.000000000000000e+00 0.000000000000000e+00 1.000000000000000e+00
0.000000000000000e+00 0.000000000000000e+00 0.000000000000000e+00
0.000000000000000e+00 1.000000000000000e+00 0.000000000000000e+00
0.000000000000000e+00 1.000000000000000e+00 1.000000000000000e+00
1.000000000000000e+00 0.000000000000000e+00 1.000000000000000e+00
1.000000000000000e+00 0.000000000000000e+00 0.000000000000000e+00
1.000000000000000e+00 1.000000000000000e+00 0.000000000000000e+00
1.000000000000000e+00 1.000000000000000e+00 1.000000000000000e+00
        </DataArray>
      </Points>

      <Cells>
        <DataArray type="Int32" Name="connectivity" format="ascii">
0 1 2 3 4 5 6 7 8 9 10 11 12 13 14 15 16 17 18 19 20 21 22 23 24 25 26 27 28 29 30 31 32 33 34 35 36 37 38 39 40 41 42 43 44 45 46 47 48 49 50 51 52 53 54 55 56 57 58 59 60 61 62 63 64 65 66 67 68 69 70 71 72 73 74 75 76 77 78 79 80 81 82 83 84 85 86 87 88 89 90 91 92 93 94 95 96 97 98 99 100 101 102 103 104 105 106 107 108 109 110 111 112 113 114 115 116 117 118 119 120 121 122 123 124 125 126 127 128 129 130 131 132 133 134 135 136 137 138 139 140 141 142 143 144 145 146 147 148 149 150 151 152 153 154 155 156 157 158 159 
        </DataArray>
        <DataArray type="Int32" Name="offsets" format="ascii">
8 16 24 32 40 48 56 64 72 80 88 96 104 112 120 128 136 144 152 160 
        </DataArray>
        <DataArray type="UInt8" Name="types" format="ascii">
12 12 12 12 12 12 12 12 12 12 12 12 12 12 12 12 12 12 12 12 
        </DataArray>
      </Cells>

  <PointData>
        <DataArray type="Float64" Name="accumulated_plastic_strain" format="ascii">
-1.378073201000620e-03
4.119772884022960e-03
-2.758387968243521e-03
-3.244614145499221e-03
2.246553438826381e-04
7.145293512952503e-04
-2.939689948777502e-03
-2.505439378334077e-03
4.119772884022960e-03
1.887612718480484e-02
-7.087761688662732e-03
-2.758387968243521e-03
7.145293512952503e-04
1.789729596656224e-02
-7.347880946942038e-03
-2.939689948777502e-03
1.887612718480484e-02
8.273863964910519e-03
-4.627759250544533e-03
-7.087761688662732e-03
1.789729596656224e-02
7.173074873665943e-03
-4.826391520991180e-03
-7.347880946942038e-03
8.273863964910519e-03
-1.695629940723929e-03
-1.137962193493519e-03
-4.627759250544533e-03
7.173074873665943e-03
-1.456034378452605e-03
-1.322329555900596e-03
-4.826391520991180e-03
-1.695629940723929e-03
0.000000000000000e+00
-3.146201884356898e-04
-1.137962193493519e-03
-1.456034378452605e-03
0.000000000000000e+00
-3.340881603103893e-04
-1.322329555900596e-03
-3.244614145499221e-03
-2.758387968243521e-03
1.646911520492006e-02
2.559620288492017e-02
-2.505439378334077e-03
-2.939689948777502e-03
2.122761514337913e-02
1.847619876657048e-02
-2.758387968243521e-03
-7.087761688662732e-03
3.402764628325418e-02
1.646911520492006e-02
-2.939689948777502e-03
-7.347880946942038e-03
3.694803407734778e-02
2.122761514337913e-02
-7.087761688662732e-03
-4.627759250544533e-03
2.626820133154763e-02
3.402764628325418e-02
-7.347880946942038e-03
-4.826391520991180e-03
2.885160187345150e-02
3.694803407734778e-02
-4.627759250544533e-03
-1.137962193493519e-03
1.018949538714461e-02
2.626820133154763e-02
-4.826391520991180e-03
-1.322329555900596e-03
1.132603655239464e-02
2.885160187345150e-02
-1.137962193493519e-03
-3.146201884356898e-04
2.348357056657778e-03
1.018949538714461e-02
-1.322329555900596e-03
-3.340881603103893e-04
2.493667976971179e-03
1.132603655239464e-02
2.246553438826381e-04
7.145293512952503e-04
-2.939689948777502e-03
-2.505439378334077e-03
-1.378073201000625e-03
4.119772884023013e-03
-2.758387968243523e-03
-3.244614145499218e-03
7.145293512952503e-04
1.789729596656224e-02
-7.347880946942038e-03
-2.939689948777502e-03
4.119772884023013e-03
1.887612718480490e-02
-7.087761688662741e-03
-2.758387968243523e-03
1.789729596656224e-02
7.173074873665943e-03
-4.826391520991180e-03
-7.347880946942038e-03
1.887612718480490e-02
8.273863964910488e-03
-4.627759250544517e-03
-7.087761688662741e-03
7.173074873665943e-03
-1.456034378452605e-03
-1.322329555900596e-03
-4.826391520991180e-03
8.273863964910488e-03
-1.695629940723928e-03
-1.137962193493521e-03
-4.627759250544517e-03
-1.456034378452605e-03
0.000000000000000e+00
-3.340881603103893e-04
-1.322329555900596e-03
-1.695629940723928e-03
0.000000000000000e+00
-3.146201884357065e-04
-1.137962193493521e-03
-2.505439378334077e-03
-2.939689948777502e-03
2.122761514337913e-02
1.847619876657048e-02
-3.244614145499218e-03
-2.758387968243523e-03
1.646911520492001e-02
2.559620288492014e-02
-2.939689948777502e-03
-7.347880946942038e-03
3.694803407734778e-02
2.122761514337913e-02
-2.758387968243523e-03
-7.087761688662741e-03
3.402764628325419e-02
1.646911520492001e-02
-7.347880946942038e-03
-4.826391520991180e-03
2.885160187345150e-02
3.694803407734778e-02
-7.087761688662741e-03
-4.627759250544517e-03
2.626820133154753e-02
3.402764628325419e-02
-4.826391520991180e-03
-1.322329555900596e-03
1.132603655239464e-02
2.885160187345150e-02
-4.627759250544517e-03
-1.137962193493521e-03
1.018949538714462e-02
2.626820133154753e-02
-1.322329555900596e-03
-3.340881603103893e-04
2.493667976971179e-03
1.132603655239464e-02
-1.137962193493521e-03
-3.146201884357065e-04
2.348357056657902e-03
1.018949538714462e-02
        </DataArray>
        <DataArray type="Float64" Name="displacement" NumberOfComponents="3" format="ascii">
0.000000000000000e+00 0.000000000000000e+00 0.000000000000000e+00
-9.858543448705051e-02 -4.999841030993800e-02 8.469811704067608e-02
1.109618069101719e-02 -3.351596473089219e-02 -7.801637437912967e-03
0.000000000000000e+00 0.000000000000000e+00 0.000000000000000e+00
0.000000000000000e+00 0.000000000000000e+00 0.000000000000000e+00
1.222934463475834e-16 -9.451797100463193e-02 7.877793777382323e-02
3.607132642179321e-17 -7.935042036310765e-02 -8.019237280925075e-03
0.000000000000000e+00 0.000000000000000e+00 0.000000000000000e+00
-9.858543448705051e-02 -4.999841030993800e-02 8.469811704067608e-02
-1.281637802452325e-01 -2.275331832364214e-01 2.238747437236373e-01
1.461437238784912e-02 -2.125361853201927e-01 -1.647835812323018e-02
1.109618069101719e-02 -3.351596473089219e-02 -7.801637437912967e-03
1.222934463475834e-16 -9.451797100463193e-02 7.877793777382323e-02
1.578797738911247e-16 -2.903209095386169e-01 2.218478671358174e-01
1.166384866539761e-16 -2.704318034225281e-01 -1.658049446110579e-02
3.607132642179321e-17 -7.935042036310765e-02 -8.019237280925075e-03
-1.281637802452325e-01 -2.275331832364214e-01 2.238747437236373e-01
-1.070834280704665e-01 -5.726269299248632e-01 3.607122163199882e-01
1.117627858647702e-02 -5.584904089923325e-01 -2.411518419577275e-02
1.461437238784912e-02 -2.125361853201927e-01 -1.647835812323018e-02
1.578797738911247e-16 -2.903209095386169e-01 2.218478671358174e-01
3.106752576585290e-16 -6.265653961761859e-01 3.648900797462757e-01
2.444189474139065e-16 -6.099521845202208e-01 -2.428730269077637e-02
1.166384866539761e-16 -2.704318034225281e-01 -1.658049446110579e-02
-1.070834280704665e-01 -5.726269299248632e-01 3.607122163199882e-01
-8.042718130529235e-02 -1.056797106045468e+00 4.771091746145755e-01
5.499444568448611e-03 -1.046478201201824e+00 -3.084831311466316e-02
1.117627858647702e-02 -5.584904089923325e-01 -2.411518419577275e-02
3.106752576585290e-16 -6.265653961761859e-01 3.648900797462757e-01
4.503260847580773e-16 -1.097600458934932e+00 4.829301043652698e-01
3.990154943748521e-16 -1.086649612403947e+00 -3.119973503204332e-02
2.444189474139065e-16 -6.099521845202208e-01 -2.428730269077637e-02
-8.042718130529235e-02 -1.056797106045468e+00 4.771091746145755e-01
-6.452661330240879e-02 -1.647318628888737e+00 5.708990910510653e-01
2.033146205314817e-03 -1.639737929243176e+00 -3.614301526706358e-02
5.499444568448611e-03 -1.046478201201824e+00 -3.084831311466316e-02
4.503260847580773e-16 -1.097600458934932e+00 4.829301043652698e-01
6.595701664495999e-16 -1.679126683210400e+00 5.760472408802075e-01
5.411627605489010e-16 -1.671356564312188e+00 -3.626041070480258e-02
3.990154943748521e-16 -1.086649612403947e+00 -3.119973503204332e-02
0.000000000000000e+00 0.000000000000000e+00 0.000000000000000e+00
1.109618069101719e-02 -3.351596473089219e-02 -7.801637437912967e-03
9.272477419341243e-02 -5.171775935423623e-02 -8.500468906025349e-02
0.000000000000000e+00 0.000000000000000e+00 0.000000000000000e+00
0.000000000000000e+00 0.000000000000000e+00 0.000000000000000e+00
3.607132642179321e-17 -7.935042036310765e-02 -8.019237280925075e-03
-3.188517832719757e-17 -9.318968375573830e-02 -7.601555335677422e-02
0.000000000000000e+00 0.000000000000000e+00 0.000000000000000e+00
1.109618069101719e-02 -3.351596473089219e-02 -7.801637437912967e-03
1.461437238784912e-02 -2.125361853201927e-01 -1.647835812323018e-02
1.172001759697349e-01 -2.254853726591337e-01 -2.558300616343815e-01
9.272477419341243e-02 -5.171775935423623e-02 -8.500468906025349e-02
3.607132642179321e-17 -7.935042036310765e-02 -8.019237280925075e-03
1.166384866539761e-16 -2.704318034225281e-01 -1.658049446110579e-02
-6.817465877078163e-18 -2.848603393650597e-01 -2.523658067028394e-01
-3.188517832719757e-17 -9.318968375573830e-02 -7.601555335677422e-02
1.461437238784912e-02 -2.125361853201927e-01 -1.647835812323018e-02
1.117627858647702e-02 -5.584904089923325e-01 -2.411518419577275e-02
1.027571548320516e-01 -5.715486044238806e-01 -4.252792125399346e-01
1.172001759697349e-01 -2.254853726591337e-01 -2.558300616343815e-01
1.166384866539761e-16 -2.704318034225281e-01 -1.658049446110579e-02
2.444189474139065e-16 -6.099521845202208e-01 -2.428730269077637e-02
1.415591413005465e-16 -6.231089972749771e-01 -4.297121789858124e-01
-6.817465877078163e-18 -2.848603393650597e-01 -2.523658067028394e-01
1.117627858647702e-02 -5.584904089923325e-01 -2.411518419577275e-02
5.499444568448611e-03 -1.046478201201824e+00 -3.084831311466316e-02
7.806937784455485e-02 -1.059137322998270e+00 -5.582178778242796e-01
1.027571548320516e-01 -5.715486044238806e-01 -4.252792125399346e-01
2.444189474139065e-16 -6.099521845202208e-01 -2.428730269077637e-02
3.990154943748521e-16 -1.086649612403947e+00 -3.119973503204332e-02
2.626771522077734e-16 -1.098162272831893e+00 -5.638410388495630e-01
1.415591413005465e-16 -6.231089972749771e-01 -4.297121789858124e-01
5.499444568448611e-03 -1.046478201201824e+00 -3.084831311466316e-02
2.033146205314817e-03 -1.639737929243176e+00 -3.614301526706358e-02
6.017201422223509e-02 -1.649902962959793e+00 -6.496317670671177e-01
7.806937784455485e-02 -1.059137322998270e+00 -5.582178778242796e-01
3.990154943748521e-16 -1.086649612403947e+00 -3.119973503204332e-02
5.411627605489010e-16 -1.671356564312188e+00 -3.626041070480258e-02
3.968582640325199e-16 -1.680430999335507e+00 -6.540477486471488e-01
2.626771522077734e-16 -1.098162272831893e+00 -5.638410388495630e-01
0.000000000000000e+00 0.000000000000000e+00 0.000000000000000e+00
1.222934463475834e-16 -9.451797100463193e-02 7.877793777382323e-02
3.607132642179321e-17 -7.935042036310765e-02 -8.019237280925075e-03
0.000000000000000e+00 0.000000000000000e+00 0.000000000000000e+00
0.000000000000000e+00 0.000000000000000e+00 0.000000000000000e+00
9.858543448705079e-02 -4.999841030993794e-02 8.469811704067616e-02
-1.109618069101710e-02 -3.351596473089206e-02 -7.801637437912906e-03
0.000000000000000e+00 0.000000000000000e+00 0.000000000000000e+00
1.222934463475834e-16 -9.451797100463193e-02 7.877793777382323e-02
1.578797738911247e-16 -2.903209095386169e-01 2.218478671358174e-01
1.166384866539761e-16 -2.704318034225281e-01 -1.658049446110579e-02
3.607132642179321e-17 -7.935042036310765e-02 -8.019237280925075e-03
9.858543448705079e-02 -4.999841030993794e-02 8.469811704067616e-02
1.281637802452328e-01 -2.275331832364213e-01 2.238747437236374e-01
-1.461437238784890e-02 -2.125361853201926e-01 -1.647835812323000e-02
-1.109618069101710e-02 -3.351596473089206e-02 -7.801637437912906e-03
1.578797738911247e-16 -2.903209095386169e-01 2.218478671358174e-01
3.106752576585290e-16 -6.265653961761859e-01 3.648900797462757e-01
2.444189474139065e-16 -6.099521845202208e-01 -2.428730269077637e-02
1.166384866539761e-16 -2.704318034225281e-01 -1.658049446110579e-02
1.281637802452328e-01 -2.275331832364213e-01 2.238747437236374e-01
1.070834280704671e-01 -5.726269299248631e-01 3.607122163199883e-01
-1.117627858647656e-02 -5.584904089923324e-01 -2.411518419577256e-02
-1.461437238784890e-02 -2.125361853201926e-01 -1.647835812323000e-02
3.106752576585290e-16 -6.265653961761859e-01 3.648900797462757e-01
4.503260847580773e-16 -1.097600458934932e+00 4.829301043652698e-01
3.990154943748521e-16 -1.086649612403947e+00 -3.119973503204332e-02
2.444189474139065e-16 -6.099521845202208e-01 -2.428730269077637e-02
1.070834280704671e-01 -5.726269299248631e-01 3.607122163199883e-01
8.042718130529326e-02 -1.056797106045468e+00 4.771091746145758e-01
-5.499444568447880e-03 -1.046478201201824e+00 -3.084831311466290e-02
-1.117627858647656e-02 -5.584904089923324e-01 -2.411518419577256e-02
4.503260847580773e-16 -1.097600458934932e+00 4.829301043652698e-01
6.595701664495999e-16 -1.679126683210400e+00 5.760472408802075e-01
5.411627605489010e-16 -1.671356564312188e+00 -3.626041070480258e-02
3.990154943748521e-16 -1.086649612403947e+00 -3.119973503204332e-02
8.042718130529326e-02 -1.056797106045468e+00 4.771091746145758e-01
6.452661330240991e-02 -1.647318628888737e+00 5.708990910510656e-01
-2.033146205313735e-03 -1.639737929243176e+00 -3.614301526706325e-02
-5.499444568447880e-03 -1.046478201201824e+00 -3.084831311466290e-02
0.000000000000000e+00 0.000000000000000e+00 0.000000000000000e+00
3.607132642179321e-17 -7.935042036310765e-02 -8.019237280925075e-03
-3.188517832719757e-17 -9.318968375573830e-02 -7.601555335677422e-02
0.000000000000000e+00 0.000000000000000e+00 0.000000000000000e+00
0.000000000000000e+00 0.000000000000000e+00 0.000000000000000e+00
-1.109618069101710e-02 -3.351596473089206e-02 -7.801637437912906e-03
-9.272477419341249e-02 -5.171775935423601e-02 -8.500468906025341e-02
0.000000000000000e+00 0.000000000000000e+00 0.000000000000000e+00
3.607132642179321e-17 -7.935042036310765e-02 -8.019237280925075e-03
1.166384866539761e-16 -2.704318034225281e-01 -1.658049446110579e-02
-6.817465877078163e-18 -2.848603393650597e-01 -2.523658067028394e-01
-3.188517832719757e-17 -9.318968375573830e-02 -7.601555335677422e-02
-1.109618069101710e-02 -3.351596473089206e-02 -7.801637437912906e-03
-1.461437238784890e-02 -2.125361853201926e-01 -1.647835812323000e-02
-1.172001759697349e-01 -2.254853726591334e-01 -2.558300616343813e-01
-9.272477419341249e-02 -5.171775935423601e-02 -8.500468906025341e-02
1.166384866539761e-16 -2.704318034225281e-01 -1.658049446110579e-02
2.444189474139065e-16 -6.099521845202208e-01 -2.428730269077637e-02
1.415591413005465e-16 -6.231089972749771e-01 -4.297121789858124e-01
-6.817465877078163e-18 -2.848603393650597e-01 -2.523658067028394e-01
-1.461437238784890e-02 -2.125361853201926e-01 -1.647835812323000e-02
-1.117627858647656e-02 -5.584904089923324e-01 -2.411518419577256e-02
-1.027571548320513e-01 -5.715486044238804e-01 -4.252792125399343e-01
-1.172001759697349e-01 -2.254853726591334e-01 -2.558300616343813e-01
2.444189474139065e-16 -6.099521845202208e-01 -2.428730269077637e-02
3.990154943748521e-16 -1.086649612403947e+00 -3.119973503204332e-02
2.626771522077734e-16 -1.098162272831893e+00 -5.638410388495630e-01
1.415591413005465e-16 -6.231089972749771e-01 -4.297121789858124e-01
-1.117627858647656e-02 -5.584904089923324e-01 -2.411518419577256e-02
-5.499444568447880e-03 -1.046478201201824e+00 -3.084831311466290e-02
-7.806937784455437e-02 -1.059137322998269e+00 -5.582178778242792e-01
-1.027571548320513e-01 -5.715486044238804e-01 -4.252792125399343e-01
3.990154943748521e-16 -1.086649612403947e+00 -3.119973503204332e-02
5.411627605489010e-16 -1.671356564312188e+00 -3.626041070480258e-02
3.968582640325199e-16 -1.680430999335507e+00 -6.540477486471488e-01
2.626771522077734e-16 -1.098162272831893e+00 -5.638410388495630e-01
-5.499444568447880e-03 -1.046478201201824e+00 -3.084831311466290e-02
-2.033146205313735e-03 -1.639737929243176e+00 -3.614301526706325e-02
-6.017201422223421e-02 -1.649902962959793e+00 -6.496317670671174e-01
-7.806937784455437e-02 -1.059137322998269e+00 -5.582178778242792e-01
        </DataArray>
        <DataArray type="Float64" Name="nodal_GL_strains_xyz" NumberOfComponents="6" format="ascii">
-4.456070928915423e-17 -4.770489558936220e-18 -8.469811704067612e-02 -1.550409106654271e-17 2.499920515496901e-02 4.929271724352530e-02
9.858543448705065e-02 1.648244557904580e-02 -1.119373718618187e-01 3.258102724168686e-02 1.063341856981084e-02 2.908085542788167e-02
-1.109618069101716e-02 -8.596745221491038e-04 8.239179061615105e-03 2.491032435400801e-02 1.070834480481579e-02 -3.762393018468326e-03
1.593777193553692e-17 -1.214306433183765e-17 7.801637437912976e-03 -6.125742274543100e-18 1.675798236544611e-02 -5.548090345508611e-03
1.677802861921318e-17 -5.421010862427522e-20 -7.877793777382328e-02 -3.198396408832238e-17 4.725898550231598e-02 -3.962758940434519e-17
9.858543448705065e-02 1.516755064152429e-02 -1.109239335679088e-01 -8.673617379884035e-19 2.918163985728011e-02 -1.441988889405721e-17
-1.109618069101715e-02 6.641436244468060e-04 8.290247230552897e-03 -2.168404344971009e-18 2.890957807298269e-02 -1.684579125499353e-17
-2.602085213965211e-18 -4.228388472693467e-18 8.019237280925080e-03 -6.247715018947719e-18 3.967521018155383e-02 -2.211772431870429e-17
9.858543448705065e-02 1.648244557904580e-02 -1.119373718618187e-01 3.258102724168686e-02 1.063341856981084e-02 2.908085542788167e-02
1.281637802452326e-01 1.499699791622870e-02 -1.380070496396561e-01 3.999521316544311e-02 1.048057898029760e-02 1.111060101944080e-03
-1.461437238784902e-02 1.023905288643928e-03 8.156773378929900e-03 3.239318000257415e-02 1.131740972585535e-02 -7.109264280274981e-05
-1.109618069101716e-02 -8.596745221491038e-04 8.239179061615105e-03 2.491032435400801e-02 1.070834480481579e-02 -3.762393018468326e-03
9.858543448705065e-02 1.516755064152429e-02 -1.109239335679088e-01 -8.673617379884035e-19 2.918163985728011e-02 -1.441988889405721e-17
1.281637802452326e-01 1.988910611608884e-02 -1.430560709862263e-01 2.081668171172169e-17 1.379767549442686e-02 -4.315124646492308e-17
-1.461437238784901e-02 2.730285086778703e-03 8.134032704925648e-03 3.556183125752455e-17 1.409702257961410e-02 -2.175180608549043e-18
-1.109618069101715e-02 6.641436244468060e-04 8.290247230552897e-03 -2.168404344971009e-18 2.890957807298269e-02 -1.684579125499353e-17
1.281637802452326e-01 1.499699791622870e-02 -1.380070496396561e-01 3.999521316544311e-02 1.048057898029760e-02 1.111060101944080e-03
1.070834280704668e-01 1.413652093253082e-02 -1.266172154454691e-01 3.216062020281042e-02 1.490228044438107e-02 -9.845218021841282e-03
-1.117627858647677e-02 5.391627504913350e-04 7.184977495716498e-03 2.672925796168537e-02 1.198764675542720e-02 2.192672707348311e-03
-1.461437238784902e-02 1.023905288643928e-03 8.156773378929900e-03 3.239318000257415e-02 1.131740972585535e-02 -7.109264280274981e-05
1.281637802452326e-01 1.988910611608884e-02 -1.430560709862263e-01 2.081668171172169e-17 1.379767549442686e-02 -4.315124646492308e-17
1.070834280704668e-01 1.661321165596507e-02 -1.305411186147262e-01 -5.551115123125783e-17 7.231196130552678e-03 2.927345865710862e-17