<?xml version="1.0" ?> 
<!-- 
# vtk DataFile Version 3.0
-->
<VTKFile type="UnstructuredGrid" version="0.1" compressor="vtkZLibDataCompressor" byte_order="LittleEndian">
  <UnstructuredGrid>
    <FieldData>
      <DataArray type="Float64" Name="TIME" NumberOfTuples="1" format="ascii">
0.000000000000000e+00 
      </DataArray>
    </FieldData>

    <Piece NumberOfPoints="72" NumberOfCells="0" >
      <Points>
        <DataArray type="Float64" NumberOfComponents="3" format="ascii">
-1.250000000000000e+00 0.000000000000000e+00 -5.000000000000000e-01
-8.838834764830000e-01 8.838834764830000e-01 -5.000000000000000e-01
-8.838834764830000e-01 8.838834764830000e-01 5.000000000000000e-01
-1.250000000000000e+00 0.000000000000000e+00 5.000000000000000e-01
-1.154849415639061e+00 4.783542904561372e-01 -5.000000000000000e-01
-8.838834764830000e-01 8.838834764830000e-01 0.000000000000000e+00
-1.154849415639061e+00 4.783542904561372e-01 5.000000000000000e-01
-1.250000000000000e+00 0.000000000000000e+00 0.000000000000000e+00
-1.154849415639061e+00 4.783542904561372e-01 1.387778780781446e-17
-1.250000000000000e+00 0.000000000000000e+00 5.000000000000000e-01
-8.838834764830000e-01 -8.838834764830000e-01 5.000000000000000e-01
-8.838834764830000e-01 -8.838834764830000e-01 -5.000000000000000e-01
-1.250000000000000e+00 0.000000000000000e+00 -5.000000000000000e-01
-1.154849415639061e+00 -4.783542904561372e-01 5.000000000000000e-01
-8.838834764830000e-01 -8.838834764830000e-01 0.000000000000000e+00
-1.154849415639061e+00 -4.783542904561372e-01 -5.000000000000000e-01
-1.250000000000000e+00 0.000000000000000e+00 0.000000000000000e+00
-1.154849415639061e+00 -4.783542904561372e-01 -1.387778780781446e-17
0.000000000000000e+00 1.250000000000000e+00 5.000000000000000e-01
-8.838834764830000e-01 8.838834764830000e-01 5.000000000000000e-01
-8.838834764830000e-01 8.838834764830000e-01 -5.000000000000000e-01
0.000000000000000e+00 1.250000000000000e+00 -5.000000000000000e-01
-4.783542904561372e-01 1.154849415639061e+00 5.000000000000000e-01
-8.838834764830000e-01 8.838834764830000e-01 0.000000000000000e+00
-4.783542904561372e-01 1.154849415639061e+00 -5.000000000000000e-01
0.000000000000000e+00 1.250000000000000e+00 0.000000000000000e+00
-4.783542904561372e-01 1.154849415639061e+00 -1.387778780781446e-17
0.000000000000000e+00 1.250000000000000e+00 -5.000000000000000e-01
8.838834764830000e-01 8.838834764830000e-01 -5.000000000000000e-01
8.838834764830000e-01 8.838834764830000e-01 5.000000000000000e-01
0.000000000000000e+00 1.250000000000000e+00 5.000000000000000e-01
4.783542904561372e-01 1.154849415639061e+00 -5.000000000000000e-01
8.838834764830000e-01 8.838834764830000e-01 0.000000000000000e+00
4.783542904561372e-01 1.154849415639061e+00 5.000000000000000e-01
0.000000000000000e+00 1.250000000000000e+00 0.000000000000000e+00
4.783542904561372e-01 1.154849415639061e+00 1.387778780781446e-17
0.000000000000000e+00 -1.250000000000000e+00 -5.000000000000000e-01
-8.838834764830000e-01 -8.838834764830000e-01 -5.000000000000000e-01
-8.838834764830000e-01 -8.838834764830000e-01 5.000000000000000e-01
0.000000000000000e+00 -1.250000000000000e+00 5.000000000000000e-01
-4.783542904561372e-01 -1.154849415639061e+00 -5.000000000000000e-01
-8.838834764830000e-01 -8.838834764830000e-01 0.000000000000000e+00
-4.783542904561372e-01 -1.154849415639061e+00 5.000000000000000e-01
0.000000000000000e+00 -1.250000000000000e+00 0.000000000000000e+00
-4.783542904561372e-01 -1.154849415639061e+00 1.387778780781446e-17
1.250000000000000e+00 0.000000000000000e+00 5.000000000000000e-01
8.838834764830000e-01 8.838834764830000e-01 5.000000000000000e-01
8.838834764830000e-01 8.838834764830000e-01 -5.000000000000000e-01
1.250000000000000e+00 0.000000000000000e+00 -5.000000000000000e-01
1.154849415639061e+00 4.783542904561372e-01 5.000000000000000e-01
8.838834764830000e-01 8.838834764830000e-01 0.000000000000000e+00
1.154849415639061e+00 4.783542904561372e-01 -5.000000000000000e-01
1.250000000000000e+00 0.000000000000000e+00 0.000000000000000e+00
1.154849415639061e+00 4.783542904561372e-01 -1.387778780781446e-17
0.000000000000000e+00 -1.250000000000000e+00 5.000000000000000e-01
8.838834764830000e-01 -8.838834764830000e-01 5.000000000000000e-01
8.838834764830000e-01 -8.838834764830000e-01 -5.000000000000000e-01
0.000000000000000e+00 -1.250000000000000e+00 -5.000000000000000e-01
4.783542904561372e-01 -1.154849415639061e+00 5.000000000000000e-01
8.838834764830000e-01 -8.838834764830000e-01 0.000000000000000e+00
4.783542904561372e-01 -1.154849415639061e+00 -5.000000000000000e-01
0.000000000000000e+00 -1.250000000000000e+00 0.000000000000000e+00
4.783542904561372e-01 -1.154849415639061e+00 -1.387778780781446e-17
1.250000000000000e+00 0.000000000000000e+00 -5.000000000000000e-01
8.838834764830000e-01 -8.838834764830000e-01 -5.000000000000000e-01
8.838834764830000e-01 -8.838834764830000e-01 5.000000000000000e-01
1.250000000000000e+00 0.000000000000000e+00 5.000000000000000e-01
1.154849415639061e+00 -4.783542904561372e-01 -5.000000000000000e-01
8.838834764830000e-01 -8.838834764830000e-01 0.000000000000000e+00
1.154849415639061e+00 -4.783542904561372e-01 5.000000000000000e-01
1.250000000000000e+00 0.000000000000000e+00 0.000000000000000e+00
1.154849415639061e+00 -4.783542904561372e-01 1.387778780781446e-17
        </DataArray>
      </Points>

      <Cells>
        <DataArray type="Int32" Name="connectivity" format="ascii">

        </DataArray>
        <DataArray type="Int32" Name="offsets" format="ascii">

        </DataArray>
        <DataArray type="UInt8" Name="types" format="ascii">

        </DataArray>
      </Cells>

  <PointData>
        <DataArray type="Float64" Name="lambda" NumberOfComponents="3" format="ascii">
0.000000000000000e+00 0.000000000000000e+00 0.000000000000000e+00
0.000000000000000e+00 0.000000000000000e+00 0.000000000000000e+00
0.000000000000000e+00 0.000000000000000e+00 0.000000000000000e+00
0.000000000000000e+00 0.000000000000000e+00 0.000000000000000e+00
0.000000000000000e+00 0.000000000000000e+00 0.000000000000000e+00
0.000000000000000e+00 0.000000000000000e+00 0.000000000000000e+00
0.000000000000000e+00 0.000000000000000e+00 0.000000000000000e+00
0.000000000000000e+00 0.000000000000000e+00 0.000000000000000e+00
0.000000000000000e+00 0.000000000000000e+00 0.000000000000000e+00
0.000000000000000e+00 0.000000000000000e+00 0.000000000000000e+00
0.000000000000000e+00 0.000000000000000e+00 0.000000000000000e+00
0.000000000000000e+00 0.000000000000000e+00 0.000000000000000e+00
0.000000000000000e+00 0.000000000000000e+00 0.000000000000000e+00
0.000000000000000e+00 0.000000000000000e+00 0.000000000000000e+00
0.000000000000000e+00 0.000000000000000e+00 0.000000000000000e+00
0.000000000000000e+00 0.000000000000000e+00 0.000000000000000e+00
0.000000000000000e+00 0.000000000000000e+00 0.000000000000000e+00
0.000000000000000e+00 0.000000000000000e+00 0.000000000000000e+00
0.000000000000000e+00 0.000000000000000e+00 0.000000000000000e+00
0.000000000000000e+00 0.000000000000000e+00 0.000000000000000e+00
0.000000000000000e+00 0.000000000000000e+00 0.000000000000000e+00
0.000000000000000e+00 0.000000000000000e+00 0.000000000000000e+00
0.000000000000000e+00 0.000000000000000e+00 0.000000000000000e+00
0.000000000000000e+00 0.000000000000000e+00 0.000000000000000e+00
0.000000000000000e+00 0.000000000000000e+00 0.000000000000000e+00
0.000000000000000e+00 0.000000000000000e+00 0.000000000000000e+00
0.000000000000000e+00 0.000000000000000e+00 0.000000000000000e+00
0.000000000000000e+00 0.000000000000000e+00 0.000000000000000e+00
0.000000000000000e+00 0.000000000000000e+00 0.000000000000000e+00
0.000000000000000e+00 0.000000000000000e+00 0.000000000000000e+00
0.000000000000000e+00 0.000000000000000e+00 0.000000000000000e+00
0.000000000000000e+00 0.000000000000000e+00 0.000000000000000e+00
0.000000000000000e+00 0.000000000000000e+00 0.000000000000000e+00
0.000000000000000e+00 0.000000000000000e+00 0.000000000000000e+00
0.000000000000000e+00 0.000000000000000e+00 0.000000000000000e+00
0.000000000000000e+00 0.000000000000000e+00 0.000000000000000e+00
0.000000000000000e+00 0.000000000000000e+00 0.000000000000000e+00
0.000000000000000e+00 0.000000000000000e+00 0.000000000000000e+00
0.000000000000000e+00 0.000000000000000e+00 0.000000000000000e+00
0.000000000000000e+00 0.000000000000000e+00 0.000000000000000e+00
0.000000000000000e+00 0.000000000000000e+00 0.000000000000000e+00
0.000000000000000e+00 0.000000000000000e+00 0.000000000000000e+00
0.000000000000000e+00 0.000000000000000e+00 0.000000000000000e+00
0.000000000000000e+00 0.000000000000000e+00 0.000000000000000e+00
0.000000000000000e+00 0.000000000000000e+00 0.000000000000000e+00
0.000000000000000e+00 0.000000000000000e+00 0.000000000000000e+00
0.000000000000000e+00 0.000000000000000e+00 0.000000000000000e+00
0.000000000000000e+00 0.000000000000000e+00 0.000000000000000e+00
0.000000000000000e+00 0.000000000000000e+00 0.000000000000000e+00
0.000000000000000e+00 0.000000000000000e+00 0.000000000000000e+00
0.000000000000000e+00 0.000000000000000e+00 0.000000000000000e+00
0.000000000000000e+00 0.000000000000000e+00 0.000000000000000e+00
0.000000000000000e+00 0.000000000000000e+00 0.000000000000000e+00
0.000000000000000e+00 0.000000000000000e+00 0.000000000000000e+00
0.000000000000000e+00 0.000000000000000e+00 0.000000000000000e+00
0.000000000000000e+00 0.000000000000000e+00 0.000000000000000e+00
0.000000000000000e+00 0.000000000000000e+00 0.000000000000000e+00
0.000000000000000e+00 0.000000000000000e+00 0.000000000000000e+00
0.000000000000000e+00 0.000000000000000e+00 0.000000000000000e+00
0.000000000000000e+00 0.000000000000000e+00 0.000000000000000e+00
0.000000000000000e+00 0.000000000000000e+00 0.000000000000000e+00
0.000000000000000e+00 0.000000000000000e+00 0.000000000000000e+00
0.000000000000000e+00 0.000000000000000e+00 0.000000000000000e+00
0.000000000000000e+00 0.000000000000000e+00 0.000000000000000e+00
0.000000000000000e+00 0.000000000000000e+00 0.000000000000000e+00
0.000000000000000e+00 0.000000000000000e+00 0.000000000000000e+00
0.000000000000000e+00 0.000000000000000e+00 0.000000000000000e+00
0.000000000000000e+00 0.000000000000000e+00 0.000000000000000e+00
0.000000000000000e+00 0.000000000000000e+00 0.000000000000000e+00
0.000000000000000e+00 0.000000000000000e+00 0.000000000000000e+00
0.000000000000000e+00 0.000000000000000e+00 0.000000000000000e+00
0.000000000000000e+00 0.000000000000000e+00 0.000000000000000e+00
        </DataArray>
      </PointData>

    </Piece>
  </UnstructuredGrid>
</VTKFile>
