<?xml version="1.0" ?> 
<!-- 
# vtk DataFile Version 3.0
-->
<VTKFile type="UnstructuredGrid" version="0.1" compressor="vtkZLibDataCompressor" byte_order="LittleEndian">
  <UnstructuredGrid>
    <FieldData>
      <DataArray type="Float64" Name="TIME" NumberOfTuples="1" format="ascii">
1.000000000000000e+00 
      </DataArray>
    </FieldData>

    <Piece NumberOfPoints="72" NumberOfCells="0" >
      <Points>
        <DataArray type="Float64" NumberOfComponents="3" format="ascii">
-1.250000000000000e+00 0.000000000000000e+00 -5.000000000000000e-01
-8.838834764830000e-01 8.838834764830000e-01 -5.000000000000000e-01
-8.838834764830000e-01 8.838834764830000e-01 5.000000000000000e-01
-1.250000000000000e+00 0.000000000000000e+00 5.000000000000000e-01
-1.154849415639061e+00 4.783542904561372e-01 -5.000000000000000e-01
-8.838834764830000e-01 8.838834764830000e-01 0.000000000000000e+00
-1.154849415639061e+00 4.783542904561372e-01 5.000000000000000e-01
-1.250000000000000e+00 0.000000000000000e+00 0.000000000000000e+00
-1.154849415639061e+00 4.783542904561372e-01 1.387778780781446e-17
-1.250000000000000e+00 0.000000000000000e+00 5.000000000000000e-01
-8.838834764830000e-01 -8.838834764830000e-01 5.000000000000000e-01
-8.838834764830000e-01 -8.838834764830000e-01 -5.000000000000000e-01
-1.250000000000000e+00 0.000000000000000e+00 -5.000000000000000e-01
-1.154849415639061e+00 -4.783542904561372e-01 5.000000000000000e-01
-8.838834764830000e-01 -8.838834764830000e-01 0.000000000000000e+00
-1.154849415639061e+00 -4.783542904561372e-01 -5.000000000000000e-01
-1.250000000000000e+00 0.000000000000000e+00 0.000000000000000e+00
-1.154849415639061e+00 -4.783542904561372e-01 -1.387778780781446e-17
0.000000000000000e+00 1.250000000000000e+00 5.000000000000000e-01
-8.838834764830000e-01 8.838834764830000e-01 5.000000000000000e-01
-8.838834764830000e-01 8.838834764830000e-01 -5.000000000000000e-01
0.000000000000000e+00 1.250000000000000e+00 -5.000000000000000e-01
-4.783542904561372e-01 1.154849415639061e+00 5.000000000000000e-01
-8.838834764830000e-01 8.838834764830000e-01 0.000000000000000e+00
-4.783542904561372e-01 1.154849415639061e+00 -5.000000000000000e-01
0.000000000000000e+00 1.250000000000000e+00 0.000000000000000e+00
-4.783542904561372e-01 1.154849415639061e+00 -1.387778780781446e-17
0.000000000000000e+00 1.250000000000000e+00 -5.000000000000000e-01
8.838834764830000e-01 8.838834764830000e-01 -5.000000000000000e-01
8.838834764830000e-01 8.838834764830000e-01 5.000000000000000e-01
0.000000000000000e+00 1.250000000000000e+00 5.000000000000000e-01
4.783542904561372e-01 1.154849415639061e+00 -5.000000000000000e-01
8.838834764830000e-01 8.838834764830000e-01 0.000000000000000e+00
4.783542904561372e-01 1.154849415639061e+00 5.000000000000000e-01
0.000000000000000e+00 1.250000000000000e+00 0.000000000000000e+00
4.783542904561372e-01 1.154849415639061e+00 1.387778780781446e-17
0.000000000000000e+00 -1.250000000000000e+00 -5.000000000000000e-01
-8.838834764830000e-01 -8.838834764830000e-01 -5.000000000000000e-01
-8.838834764830000e-01 -8.838834764830000e-01 5.000000000000000e-01
0.000000000000000e+00 -1.250000000000000e+00 5.000000000000000e-01
-4.783542904561372e-01 -1.154849415639061e+00 -5.000000000000000e-01
-8.838834764830000e-01 -8.838834764830000e-01 0.000000000000000e+00
-4.783542904561372e-01 -1.154849415639061e+00 5.000000000000000e-01
0.000000000000000e+00 -1.250000000000000e+00 0.000000000000000e+00
-4.783542904561372e-01 -1.154849415639061e+00 1.387778780781446e-17
1.250000000000000e+00 0.000000000000000e+00 5.000000000000000e-01
8.838834764830000e-01 8.838834764830000e-01 5.000000000000000e-01
8.838834764830000e-01 8.838834764830000e-01 -5.000000000000000e-01
1.250000000000000e+00 0.000000000000000e+00 -5.000000000000000e-01
1.154849415639061e+00 4.783542904561372e-01 5.000000000000000e-01
8.838834764830000e-01 8.838834764830000e-01 0.000000000000000e+00
1.154849415639061e+00 4.783542904561372e-01 -5.000000000000000e-01
1.250000000000000e+00 0.000000000000000e+00 0.000000000000000e+00
1.154849415639061e+00 4.783542904561372e-01 -1.387778780781446e-17
0.000000000000000e+00 -1.250000000000000e+00 5.000000000000000e-01
8.838834764830000e-01 -8.838834764830000e-01 5.000000000000000e-01
8.838834764830000e-01 -8.838834764830000e-01 -5.000000000000000e-01
0.000000000000000e+00 -1.250000000000000e+00 -5.000000000000000e-01
4.783542904561372e-01 -1.154849415639061e+00 5.000000000000000e-01
8.838834764830000e-01 -8.838834764830000e-01 0.000000000000000e+00
4.783542904561372e-01 -1.154849415639061e+00 -5.000000000000000e-01
0.000000000000000e+00 -1.250000000000000e+00 0.000000000000000e+00
4.783542904561372e-01 -1.154849415639061e+00 -1.387778780781446e-17
1.250000000000000e+00 0.000000000000000e+00 -5.000000000000000e-01
8.838834764830000e-01 -8.838834764830000e-01 -5.000000000000000e-01
8.838834764830000e-01 -8.838834764830000e-01 5.000000000000000e-01
1.250000000000000e+00 0.000000000000000e+00 5.000000000000000e-01
1.154849415639061e+00 -4.783542904561372e-01 -5.000000000000000e-01
8.838834764830000e-01 -8.838834764830000e-01 0.000000000000000e+00
1.154849415639061e+00 -4.783542904561372e-01 5.000000000000000e-01
1.250000000000000e+00 0.000000000000000e+00 0.000000000000000e+00
1.154849415639061e+00 -4.783542904561372e-01 1.387778780781446e-17
        </DataArray>
      </Points>

      <Cells>
        <DataArray type="Int32" Name="connectivity" format="ascii">

        </DataArray>
        <DataArray type="Int32" Name="offsets" format="ascii">

        </DataArray>
        <DataArray type="UInt8" Name="types" format="ascii">

        </DataArray>
      </Cells>

  <PointData>
        <DataArray type="Float64" Name="lambda" NumberOfComponents="3" format="ascii">
-4.715696238178350e-05 2.457842879936347e-05 -6.583515926802539e-06
-1.406696330198064e-05 -6.991830385078684e-03 -3.635238309345783e-07
-5.854762371254378e-05 -6.933294474845932e-03 1.197216812951592e-05
-1.297788637828928e-04 2.905967578520304e-05 1.119329765552718e-04
-2.259912169800126e-05 -3.672253514576797e-03 -4.174404917321585e-06
-2.938912358757025e-05 -6.978264531068268e-03 5.256860926939787e-06
-8.043816698240108e-05 -3.633923111240938e-03 6.892463624879953e-05
-7.740996592719433e-05 2.583011899439545e-05 4.082253129450895e-05
-4.308884157819909e-05 -3.662390799796016e-03 2.511344289353785e-05
-1.297788637828928e-04 2.905967578520304e-05 1.119329765552718e-04
5.090816449771574e-06 7.103913789385014e-03 2.100944557280617e-05
2.856561703606408e-05 7.119121710128141e-03 4.751026493842537e-06
-4.715696238178350e-05 2.457842879936347e-05 -6.583515926802539e-06
-7.534080396418176e-05 3.747180098510857e-03 7.396418022237961e-05
1.879652144490519e-05 7.118636715544805e-03 1.282998289070925e-05
-1.581936653701564e-05 3.764365780776257e-03 -2.361332263324266e-06
-7.740996592719433e-05 2.583011899439545e-05 4.082253129450895e-05
-3.800792681582273e-05 3.760643768094666e-03 2.860362200217911e-05
-2.812698194183662e-05 -1.018825184850166e-02 -1.032279119498938e-04
-5.854762371254378e-05 -6.933294474845932e-03 1.197216812951592e-05
-1.406696330198064e-05 -6.991830385078684e-03 -3.635238309345783e-07
-2.225823746655916e-05 -1.023250316819673e-02 3.255243573494895e-05
3.445880411398422e-05 -8.979201022370431e-03 -6.394689199888258e-05
-2.938912358757025e-05 -6.978264531068268e-03 5.256860926939787e-06
7.018039421031815e-05 -9.032436287185376e-03 1.735099749816608e-05
-2.366584847991123e-05 -1.022938854178165e-02 -1.331279429433232e-05
5.792599545153806e-05 -9.023999046206928e-03 -1.045670994579035e-05
-2.225823746655916e-05 -1.023250316819673e-02 3.255243573494895e-05
-4.227243529668057e-06 -7.015813843265180e-03 3.993618280000666e-07
2.631764244070390e-05 -6.978545098710866e-03 1.201148529260397e-05
-2.812698194183662e-05 -1.018825184850166e-02 -1.032279119498938e-04
-1.201577281419604e-04 -9.066038688504979e-03 1.936609387180507e-05
7.124608305891198e-06 -7.008806947295774e-03 6.198783933708578e-06
-9.474896262273677e-05 -9.026017183982903e-03 -5.973123734469315e-05
-2.366584847991123e-05 -1.022938854178165e-02 -1.331279429433232e-05
-1.102870735557046e-04 -9.061550848974070e-03 -7.026642903460161e-06
-5.707516289878472e-06 9.865755411268452e-03 2.927396082246767e-05
2.856561703606408e-05 7.119121710128141e-03 4.751026493842537e-06
5.090816449771574e-06 7.103913789385014e-03 2.100944557280617e-05
-5.937028532830239e-06 9.868441091464782e-03 -1.270636794830299e-04
1.167808564594907e-04 8.944853932575658e-03 1.973802959543740e-05
1.879652144490519e-05 7.118636715544805e-03 1.282998289070925e-05
1.167095598766658e-04 8.944040567737161e-03 -6.674284253566433e-05
-5.639796207753774e-06 9.875637562552081e-03 -2.602054480678720e-05
1.159476572180889e-04 8.952088689212935e-03 -1.004388199246707e-05
1.357074156818880e-04 5.004618107244555e-05 9.163066769416905e-05
2.631764244070390e-05 -6.978545098710866e-03 1.201148529260397e-05
-4.227243529668057e-06 -7.015813843265180e-03 3.993618280000666e-07
1.770851637377251e-04 3.772233677950680e-05 -1.197000609234093e-05
1.049199551732616e-04 -3.628931883442304e-03 5.603058183059187e-05
7.124608305891198e-06 -7.008806947295774e-03 6.198783933708579e-06
1.111121734524933e-04 -3.658605482513264e-03 -8.482363097436107e-06
1.633423262771339e-04 4.123934318414044e-05 2.884576670137890e-05
1.093440098837070e-04 -3.651827382793676e-03 1.696853790110815e-05
-5.937028532830239e-06 9.868441091464782e-03 -1.270636794830299e-04
-5.967551969530671e-05 7.099052503339448e-03 1.716790504359440e-05
-4.041606966961561e-05 7.102404184553928e-03 1.392916434648224e-06
-5.707516289878472e-06 9.865755411268452e-03 2.927396082246767e-05
-1.455150094592512e-04 8.935041521193452e-03 -6.839010860259926e-05
-4.589785689264455e-05 7.106116490968806e-03 9.352668117758275e-06
-1.317203301654064e-04 8.932154071997912e-03 1.789553001684501e-05
-5.639796207753774e-06 9.875637562552083e-03 -2.602054480678721e-05
-1.355550341263489e-04 8.940624691074961e-03 -1.173842188944090e-05
1.770851637377251e-04 3.772233677950680e-05 -1.197000609234093e-05
-4.041606966961561e-05 7.102404184553928e-03 1.392916434648224e-06
-5.967551969530671e-05 7.099052503339448e-03 1.716790504359440e-05
1.357074156818880e-04 5.004618107244555e-05 9.163066769416905e-05
6.453635668699691e-05 3.755279263614672e-03 -6.960579826617244e-06
-4.589785689264455e-05 7.106116490968806e-03 9.352668117758275e-06
3.279078659590815e-05 3.752605236326656e-03 6.196891308716992e-05
1.633423262771339e-04 4.123934318414044e-05 2.884576670137890e-05
5.420866601216155e-05 3.756629891421489e-03 2.076859550086933e-05
        </DataArray>
      </PointData>

    </Piece>
  </UnstructuredGrid>
</VTKFile>
