<?xml version="1.0" ?> 
<!-- 
# vtk DataFile Version 3.0
-->
<VTKFile type="UnstructuredGrid" version="0.1" compressor="vtkZLibDataCompressor" byte_order="LittleEndian">
  <UnstructuredGrid>
    <FieldData>
      <DataArray type="Float64" Name="TIME" NumberOfTuples="1" format="ascii">
0.000000000000000e+00 
      </DataArray>
    </FieldData>

    <Piece NumberOfPoints="616" NumberOfCells="58" >
      <Points>
        <DataArray type="Float64" NumberOfComponents="3" format="ascii">
0.000000000000000e+00 1.500000000000000e+00 -5.000000000000000e-01
0.000000000000000e+00 1.250000000000000e+00 -5.000000000000000e-01
8.838834764830000e-01 8.838834764830000e-01 -5.000000000000000e-01
1.500000000000000e+00 1.500000000000000e+00 -5.000000000000000e-01
0.000000000000000e+00 1.500000000000000e+00 5.000000000000000e-01
0.000000000000000e+00 1.250000000000000e+00 5.000000000000000e-01
8.838834764830000e-01 8.838834764830000e-01 5.000000000000000e-01
1.500000000000000e+00 1.500000000000000e+00 5.000000000000000e-01
0.000000000000000e+00 1.375000000000000e+00 -5.000000000000000e-01
4.783542904561372e-01 1.154849415639061e+00 -5.000000000000000e-01
1.082106781186750e+00 1.082106781186750e+00 -5.000000000000000e-01
7.500000000000000e-01 1.500000000000000e+00 -5.000000000000000e-01
0.000000000000000e+00 1.375000000000000e+00 5.000000000000000e-01
4.783542904561372e-01 1.154849415639061e+00 5.000000000000000e-01
1.082106781186750e+00 1.082106781186750e+00 5.000000000000000e-01
7.500000000000000e-01 1.500000000000000e+00 5.000000000000000e-01
0.000000000000000e+00 1.500000000000000e+00 0.000000000000000e+00
0.000000000000000e+00 1.250000000000000e+00 0.000000000000000e+00
8.838834764830000e-01 8.838834764830000e-01 0.000000000000000e+00
1.500000000000000e+00 1.500000000000000e+00 0.000000000000000e+00
7.500000000000000e-01 1.500000000000000e+00 1.387778780781446e-17
4.783542904561372e-01 1.154849415639061e+00 1.387778780781446e-17
0.000000000000000e+00 1.375000000000000e+00 0.000000000000000e+00
1.082106781186750e+00 1.082106781186750e+00 0.000000000000000e+00
5.701834323650968e-01 1.298879532511339e+00 -5.000000000000000e-01
5.701834323650968e-01 1.298879532511339e+00 5.000000000000000e-01
5.701834323650968e-01 1.298879532511339e+00 -2.602085213965211e-17
1.500000000000000e+00 0.000000000000000e+00 5.000000000000000e-01
1.250000000000000e+00 0.000000000000000e+00 5.000000000000000e-01
8.838834764830000e-01 8.838834764830000e-01 5.000000000000000e-01
1.500000000000000e+00 1.500000000000000e+00 5.000000000000000e-01
1.500000000000000e+00 0.000000000000000e+00 -5.000000000000000e-01
1.250000000000000e+00 0.000000000000000e+00 -5.000000000000000e-01
8.838834764830000e-01 8.838834764830000e-01 -5.000000000000000e-01
1.500000000000000e+00 1.500000000000000e+00 -5.000000000000000e-01
1.375000000000000e+00 0.000000000000000e+00 5.000000000000000e-01
1.154849415639061e+00 4.783542904561372e-01 5.000000000000000e-01
1.082106781186750e+00 1.082106781186750e+00 5.000000000000000e-01
1.500000000000000e+00 7.500000000000000e-01 5.000000000000000e-01
1.375000000000000e+00 0.000000000000000e+00 -5.000000000000000e-01
1.154849415639061e+00 4.783542904561372e-01 -5.000000000000000e-01
1.082106781186750e+00 1.082106781186750e+00 -5.000000000000000e-01
1.500000000000000e+00 7.500000000000000e-01 -5.000000000000000e-01
1.500000000000000e+00 0.000000000000000e+00 0.000000000000000e+00
1.250000000000000e+00 0.000000000000000e+00 0.000000000000000e+00
8.838834764830000e-01 8.838834764830000e-01 0.000000000000000e+00
1.500000000000000e+00 1.500000000000000e+00 0.000000000000000e+00
1.500000000000000e+00 7.500000000000000e-01 -1.387778780781446e-17
1.154849415639061e+00 4.783542904561372e-01 -1.387778780781446e-17
1.375000000000000e+00 0.000000000000000e+00 0.000000000000000e+00
1.082106781186750e+00 1.082106781186750e+00 0.000000000000000e+00
1.298879532511339e+00 5.701834323650968e-01 5.000000000000000e-01
1.298879532511339e+00 5.701834323650968e-01 -5.000000000000000e-01
1.298879532511339e+00 5.701834323650968e-01 2.602085213965211e-17
1.500000000000000e+00 0.000000000000000e+00 -5.000000000000000e-01
1.250000000000000e+00 0.000000000000000e+00 -5.000000000000000e-01
8.838834764830000e-01 -8.838834764830000e-01 -5.000000000000000e-01
1.500000000000000e+00 -1.500000000000000e+00 -5.000000000000000e-01
1.500000000000000e+00 0.000000000000000e+00 5.000000000000000e-01
1.250000000000000e+00 0.000000000000000e+00 5.000000000000000e-01
8.838834764830000e-01 -8.838834764830000e-01 5.000000000000000e-01
1.500000000000000e+00 -1.500000000000000e+00 5.000000000000000e-01
1.375000000000000e+00 0.000000000000000e+00 -5.000000000000000e-01
1.154849415639061e+00 -4.783542904561372e-01 -5.000000000000000e-01
1.082106781186750e+00 -1.082106781186750e+00 -5.000000000000000e-01
1.500000000000000e+00 -7.500000000000000e-01 -5.000000000000000e-01
1.375000000000000e+00 0.000000000000000e+00 5.000000000000000e-01
1.154849415639061e+00 -4.783542904561372e-01 5.000000000000000e-01
1.082106781186750e+00 -1.082106781186750e+00 5.000000000000000e-01
1.500000000000000e+00 -7.500000000000000e-01 5.000000000000000e-01
1.500000000000000e+00 0.000000000000000e+00 0.000000000000000e+00
1.250000000000000e+00 0.000000000000000e+00 0.000000000000000e+00
8.838834764830000e-01 -8.838834764830000e-01 0.000000000000000e+00
1.500000000000000e+00 -1.500000000000000e+00 0.000000000000000e+00
1.500000000000000e+00 -7.500000000000000e-01 1.387778780781446e-17
1.154849415639061e+00 -4.783542904561372e-01 1.387778780781446e-17
1.375000000000000e+00 0.000000000000000e+00 0.000000000000000e+00
1.082106781186750e+00 -1.082106781186750e+00 0.000000000000000e+00
1.298879532511339e+00 -5.701834323650968e-01 -5.000000000000000e-01
1.298879532511339e+00 -5.701834323650968e-01 5.000000000000000e-01
1.298879532511339e+00 -5.701834323650968e-01 -2.602085213965211e-17
0.000000000000000e+00 -1.500000000000000e+00 5.000000000000000e-01
0.000000000000000e+00 -1.250000000000000e+00 5.000000000000000e-01
8.838834764830000e-01 -8.838834764830000e-01 5.000000000000000e-01
1.500000000000000e+00 -1.500000000000000e+00 5.000000000000000e-01
0.000000000000000e+00 -1.500000000000000e+00 -5.000000000000000e-01
0.000000000000000e+00 -1.250000000000000e+00 -5.000000000000000e-01
8.838834764830000e-01 -8.838834764830000e-01 -5.000000000000000e-01
1.500000000000000e+00 -1.500000000000000e+00 -5.000000000000000e-01
0.000000000000000e+00 -1.375000000000000e+00 5.000000000000000e-01
4.783542904561372e-01 -1.154849415639061e+00 5.000000000000000e-01
1.082106781186750e+00 -1.082106781186750e+00 5.000000000000000e-01
7.500000000000000e-01 -1.500000000000000e+00 5.000000000000000e-01
0.000000000000000e+00 -1.375000000000000e+00 -5.000000000000000e-01
4.783542904561372e-01 -1.154849415639061e+00 -5.000000000000000e-01
1.082106781186750e+00 -1.082106781186750e+00 -5.000000000000000e-01
7.500000000000000e-01 -1.500000000000000e+00 -5.000000000000000e-01
0.000000000000000e+00 -1.500000000000000e+00 0.000000000000000e+00
0.000000000000000e+00 -1.250000000000000e+00 0.000000000000000e+00
8.838834764830000e-01 -8.838834764830000e-01 0.000000000000000e+00
1.500000000000000e+00 -1.500000000000000e+00 0.000000000000000e+00
7.500000000000000e-01 -1.500000000000000e+00 -1.387778780781446e-17
4.783542904561372e-01 -1.154849415639061e+00 -1.387778780781446e-17
0.000000000000000e+00 -1.375000000000000e+00 0.000000000000000e+00
1.082106781186750e+00 -1.082106781186750e+00 0.000000000000000e+00
5.701834323650968e-01 -1.298879532511339e+00 5.000000000000000e-01
5.701834323650968e-01 -1.298879532511339e+00 -5.000000000000000e-01
5.701834323650968e-01 -1.298879532511339e+00 2.602085213965211e-17
0.000000000000000e+00 1.500000000000000e+00 5.000000000000000e-01
0.000000000000000e+00 1.250000000000000e+00 5.000000000000000e-01
-8.838834764830000e-01 8.838834764830000e-01 5.000000000000000e-01
-1.500000000000000e+00 1.500000000000000e+00 5.000000000000000e-01
0.000000000000000e+00 1.500000000000000e+00 -5.000000000000000e-01
0.000000000000000e+00 1.250000000000000e+00 -5.000000000000000e-01
-8.838834764830000e-01 8.838834764830000e-01 -5.000000000000000e-01
-1.500000000000000e+00 1.500000000000000e+00 -5.000000000000000e-01
0.000000000000000e+00 1.375000000000000e+00 5.000000000000000e-01
-4.783542904561372e-01 1.154849415639061e+00 5.000000000000000e-01
-1.082106781186750e+00 1.082106781186750e+00 5.000000000000000e-01
-7.500000000000000e-01 1.500000000000000e+00 5.000000000000000e-01
0.000000000000000e+00 1.375000000000000e+00 -5.000000000000000e-01
-4.783542904561372e-01 1.154849415639061e+00 -5.000000000000000e-01
-1.082106781186750e+00 1.082106781186750e+00 -5.000000000000000e-01
-7.500000000000000e-01 1.500000000000000e+00 -5.000000000000000e-01
0.000000000000000e+00 1.500000000000000e+00 0.000000000000000e+00
0.000000000000000e+00 1.250000000000000e+00 0.000000000000000e+00
-8.838834764830000e-01 8.838834764830000e-01 0.000000000000000e+00
-1.500000000000000e+00 1.500000000000000e+00 0.000000000000000e+00
-7.500000000000000e-01 1.500000000000000e+00 -1.387778780781446e-17
-4.783542904561372e-01 1.154849415639061e+00 -1.387778780781446e-17
0.000000000000000e+00 1.375000000000000e+00 0.000000000000000e+00
-1.082106781186750e+00 1.082106781186750e+00 0.000000000000000e+00
-5.701834323650968e-01 1.298879532511339e+00 5.000000000000000e-01
-5.701834323650968e-01 1.298879532511339e+00 -5.000000000000000e-01
-5.701834323650968e-01 1.298879532511339e+00 2.602085213965211e-17
-1.500000000000000e+00 0.000000000000000e+00 -5.000000000000000e-01
-1.250000000000000e+00 0.000000000000000e+00 -5.000000000000000e-01
-8.838834764830000e-01 8.838834764830000e-01 -5.000000000000000e-01
-1.500000000000000e+00 1.500000000000000e+00 -5.000000000000000e-01
-1.500000000000000e+00 0.000000000000000e+00 5.000000000000000e-01
-1.250000000000000e+00 0.000000000000000e+00 5.000000000000000e-01
-8.838834764830000e-01 8.838834764830000e-01 5.000000000000000e-01
[...]
  <PointData>
        <DataArray type="Float64" Name="displacement" NumberOfComponents="3" format="ascii">
0.000000000000000e+00 0.000000000000000e+00 0.000000000000000e+00
0.000000000000000e+00 0.000000000000000e+00 0.000000000000000e+00
0.000000000000000e+00 0.000000000000000e+00 0.000000000000000e+00
0.000000000000000e+00 0.000000000000000e+00 0.000000000000000e+00
0.000000000000000e+00 0.000000000000000e+00 0.000000000000000e+00
0.000000000000000e+00 0.000000000000000e+00 0.000000000000000e+00
0.000000000000000e+00 0.000000000000000e+00 0.000000000000000e+00
0.000000000000000e+00 0.000000000000000e+00 0.000000000000000e+00
0.000000000000000e+00 0.000000000000000e+00 0.000000000000000e+00
0.000000000000000e+00 0.000000000000000e+00 0.000000000000000e+00
0.000000000000000e+00 0.000000000000000e+00 0.000000000000000e+00
0.000000000000000e+00 0.000000000000000e+00 0.000000000000000e+00
0.000000000000000e+00 0.000000000000000e+00 0.000000000000000e+00
0.000000000000000e+00 0.000000000000000e+00 0.000000000000000e+00
0.000000000000000e+00 0.000000000000000e+00 0.000000000000000e+00
0.000000000000000e+00 0.000000000000000e+00 0.000000000000000e+00
0.000000000000000e+00 0.000000000000000e+00 0.000000000000000e+00
0.000000000000000e+00 0.000000000000000e+00 0.000000000000000e+00
0.000000000000000e+00 0.000000000000000e+00 0.000000000000000e+00
0.000000000000000e+00 0.000000000000000e+00 0.000000000000000e+00
0.000000000000000e+00 0.000000000000000e+00 0.000000000000000e+00
0.000000000000000e+00 0.000000000000000e+00 0.000000000000000e+00
0.000000000000000e+00 0.000000000000000e+00 0.000000000000000e+00
0.000000000000000e+00 0.000000000000000e+00 0.000000000000000e+00
0.000000000000000e+00 0.000000000000000e+00 0.000000000000000e+00
0.000000000000000e+00 0.000000000000000e+00 0.000000000000000e+00
0.000000000000000e+00 0.000000000000000e+00 0.000000000000000e+00
0.000000000000000e+00 0.000000000000000e+00 0.000000000000000e+00
0.000000000000000e+00 0.000000000000000e+00 0.000000000000000e+00
0.000000000000000e+00 0.000000000000000e+00 0.000000000000000e+00
0.000000000000000e+00 0.000000000000000e+00 0.000000000000000e+00
0.000000000000000e+00 0.000000000000000e+00 0.000000000000000e+00
0.000000000000000e+00 0.000000000000000e+00 0.000000000000000e+00
0.000000000000000e+00 0.000000000000000e+00 0.000000000000000e+00
0.000000000000000e+00 0.000000000000000e+00 0.000000000000000e+00
0.000000000000000e+00 0.000000000000000e+00 0.000000000000000e+00
0.000000000000000e+00 0.000000000000000e+00 0.000000000000000e+00
0.000000000000000e+00 0.000000000000000e+00 0.000000000000000e+00
0.000000000000000e+00 0.000000000000000e+00 0.000000000000000e+00
0.000000000000000e+00 0.000000000000000e+00 0.000000000000000e+00
0.000000000000000e+00 0.000000000000000e+00 0.000000000000000e+00
0.000000000000000e+00 0.000000000000000e+00 0.000000000000000e+00
0.000000000000000e+00 0.000000000000000e+00 0.000000000000000e+00
0.000000000000000e+00 0.000000000000000e+00 0.000000000000000e+00
0.000000000000000e+00 0.000000000000000e+00 0.000000000000000e+00
0.000000000000000e+00 0.000000000000000e+00 0.000000000000000e+00
0.000000000000000e+00 0.000000000000000e+00 0.000000000000000e+00
0.000000000000000e+00 0.000000000000000e+00 0.000000000000000e+00
0.000000000000000e+00 0.000000000000000e+00 0.000000000000000e+00
0.000000000000000e+00 0.000000000000000e+00 0.000000000000000e+00
0.000000000000000e+00 0.000000000000000e+00 0.000000000000000e+00
0.000000000000000e+00 0.000000000000000e+00 0.000000000000000e+00
0.000000000000000e+00 0.000000000000000e+00 0.000000000000000e+00
0.000000000000000e+00 0.000000000000000e+00 0.000000000000000e+00
0.000000000000000e+00 0.000000000000000e+00 0.000000000000000e+00
0.000000000000000e+00 0.000000000000000e+00 0.000000000000000e+00
0.000000000000000e+00 0.000000000000000e+00 0.000000000000000e+00
0.000000000000000e+00 0.000000000000000e+00 0.000000000000000e+00
0.000000000000000e+00 0.000000000000000e+00 0.000000000000000e+00
0.000000000000000e+00 0.000000000000000e+00 0.000000000000000e+00
0.000000000000000e+00 0.000000000000000e+00 0.000000000000000e+00
0.000000000000000e+00 0.000000000000000e+00 0.000000000000000e+00
0.000000000000000e+00 0.000000000000000e+00 0.000000000000000e+00
0.000000000000000e+00 0.000000000000000e+00 0.000000000000000e+00
0.000000000000000e+00 0.000000000000000e+00 0.000000000000000e+00
0.000000000000000e+00 0.000000000000000e+00 0.000000000000000e+00
0.000000000000000e+00 0.000000000000000e+00 0.000000000000000e+00
0.000000000000000e+00 0.000000000000000e+00 0.000000000000000e+00
0.000000000000000e+00 0.000000000000000e+00 0.000000000000000e+00
0.000000000000000e+00 0.000000000000000e+00 0.000000000000000e+00
0.000000000000000e+00 0.000000000000000e+00 0.000000000000000e+00
0.000000000000000e+00 0.000000000000000e+00 0.000000000000000e+00
0.000000000000000e+00 0.000000000000000e+00 0.000000000000000e+00
0.000000000000000e+00 0.000000000000000e+00 0.000000000000000e+00
0.000000000000000e+00 0.000000000000000e+00 0.000000000000000e+00
0.000000000000000e+00 0.000000000000000e+00 0.000000000000000e+00
0.000000000000000e+00 0.000000000000000e+00 0.000000000000000e+00
0.000000000000000e+00 0.000000000000000e+00 0.000000000000000e+00
0.000000000000000e+00 0.000000000000000e+00 0.000000000000000e+00
0.000000000000000e+00 0.000000000000000e+00 0.000000000000000e+00
0.000000000000000e+00 0.000000000000000e+00 0.000000000000000e+00
0.000000000000000e+00 0.000000000000000e+00 0.000000000000000e+00
0.000000000000000e+00 0.000000000000000e+00 0.000000000000000e+00
0.000000000000000e+00 0.000000000000000e+00 0.000000000000000e+00
0.000000000000000e+00 0.000000000000000e+00 0.000000000000000e+00
0.000000000000000e+00 0.000000000000000e+00 0.000000000000000e+00
0.000000000000000e+00 0.000000000000000e+00 0.000000000000000e+00
0.000000000000000e+00 0.000000000000000e+00 0.000000000000000e+00
0.000000000000000e+00 0.000000000000000e+00 0.000000000000000e+00
0.000000000000000e+00 0.000000000000000e+00 0.000000000000000e+00
0.000000000000000e+00 0.000000000000000e+00 0.000000000000000e+00
0.000000000000000e+00 0.000000000000000e+00 0.000000000000000e+00
0.000000000000000e+00 0.000000000000000e+00 0.000000000000000e+00
0.000000000000000e+00 0.000000000000000e+00 0.000000000000000e+00
0.000000000000000e+00 0.000000000000000e+00 0.000000000000000e+00
0.000000000000000e+00 0.000000000000000e+00 0.000000000000000e+00
0.000000000000000e+00 0.000000000000000e+00 0.000000000000000e+00
0.000000000000000e+00 0.000000000000000e+00 0.000000000000000e+00
0.000000000000000e+00 0.000000000000000e+00 0.000000000000000e+00
0.000000000000000e+00 0.000000000000000e+00 0.000000000000000e+00
0.000000000000000e+00 0.000000000000000e+00 0.000000000000000e+00
0.000000000000000e+00 0.000000000000000e+00 0.000000000000000e+00
0.000000000000000e+00 0.000000000000000e+00 0.000000000000000e+00
0.000000000000000e+00 0.000000000000000e+00 0.000000000000000e+00
0.000000000000000e+00 0.000000000000000e+00 0.000000000000000e+00
0.000000000000000e+00 0.000000000000000e+00 0.000000000000000e+00
0.000000000000000e+00 0.000000000000000e+00 0.000000000000000e+00
0.000000000000000e+00 0.000000000000000e+00 0.000000000000000e+00
0.000000000000000e+00 0.000000000000000e+00 0.000000000000000e+00
0.000000000000000e+00 0.000000000000000e+00 0.000000000000000e+00
0.000000000000000e+00 0.000000000000000e+00 0.000000000000000e+00
0.000000000000000e+00 0.000000000000000e+00 0.000000000000000e+00
0.000000000000000e+00 0.000000000000000e+00 0.000000000000000e+00
0.000000000000000e+00 0.000000000000000e+00 0.000000000000000e+00
0.000000000000000e+00 0.000000000000000e+00 0.000000000000000e+00
0.000000000000000e+00 0.000000000000000e+00 0.000000000000000e+00
0.000000000000000e+00 0.000000000000000e+00 0.000000000000000e+00
0.000000000000000e+00 0.000000000000000e+00 0.000000000000000e+00
0.000000000000000e+00 0.000000000000000e+00 0.000000000000000e+00
0.000000000000000e+00 0.000000000000000e+00 0.000000000000000e+00
0.000000000000000e+00 0.000000000000000e+00 0.000000000000000e+00
0.000000000000000e+00 0.000000000000000e+00 0.000000000000000e+00
0.000000000000000e+00 0.000000000000000e+00 0.000000000000000e+00
0.000000000000000e+00 0.000000000000000e+00 0.000000000000000e+00
0.000000000000000e+00 0.000000000000000e+00 0.000000000000000e+00
0.000000000000000e+00 0.000000000000000e+00 0.000000000000000e+00
0.000000000000000e+00 0.000000000000000e+00 0.000000000000000e+00
0.000000000000000e+00 0.000000000000000e+00 0.000000000000000e+00
0.000000000000000e+00 0.000000000000000e+00 0.000000000000000e+00
0.000000000000000e+00 0.000000000000000e+00 0.000000000000000e+00
0.000000000000000e+00 0.000000000000000e+00 0.000000000000000e+00
0.000000000000000e+00 0.000000000000000e+00 0.000000000000000e+00
0.000000000000000e+00 0.000000000000000e+00 0.000000000000000e+00
0.000000000000000e+00 0.000000000000000e+00 0.000000000000000e+00
0.000000000000000e+00 0.000000000000000e+00 0.000000000000000e+00
0.000000000000000e+00 0.000000000000000e+00 0.000000000000000e+00
0.000000000000000e+00 0.000000000000000e+00 0.000000000000000e+00
0.000000000000000e+00 0.000000000000000e+00 0.000000000000000e+00
0.000000000000000e+00 0.000000000000000e+00 0.000000000000000e+00
0.000000000000000e+00 0.000000000000000e+00 0.000000000000000e+00
0.000000000000000e+00 0.000000000000000e+00 0.000000000000000e+00
0.000000000000000e+00 0.000000000000000e+00 0.000000000000000e+00
0.000000000000000e+00 0.000000000000000e+00 0.000000000000000e+00
0.000000000000000e+00 0.000000000000000e+00 0.000000000000000e+00
0.000000000000000e+00 0.000000000000000e+00 0.000000000000000e+00
0.000000000000000e+00 0.000000000000000e+00 0.000000000000000e+00
0.000000000000000e+00 0.000000000000000e+00 0.000000000000000e+00
0.000000000000000e+00 0.000000000000000e+00 0.000000000000000e+00
0.000000000000000e+00 0.000000000000000e+00 0.000000000000000e+00
0.000000000000000e+00 0.000000000000000e+00 0.000000000000000e+00
0.000000000000000e+00 0.000000000000000e+00 0.000000000000000e+00
0.000000000000000e+00 0.000000000000000e+00 0.000000000000000e+00
0.000000000000000e+00 0.000000000000000e+00 0.000000000000000e+00
0.000000000000000e+00 0.000000000000000e+00 0.000000000000000e+00
0.000000000000000e+00 0.000000000000000e+00 0.000000000000000e+00
0.000000000000000e+00 0.000000000000000e+00 0.000000000000000e+00
0.000000000000000e+00 0.000000000000000e+00 0.000000000000000e+00
0.000000000000000e+00 0.000000000000000e+00 0.000000000000000e+00
0.000000000000000e+00 0.000000000000000e+00 0.000000000000000e+00
0.000000000000000e+00 0.000000000000000e+00 0.000000000000000e+00
0.000000000000000e+00 0.000000000000000e+00 0.000000000000000e+00
0.000000000000000e+00 0.000000000000000e+00 0.000000000000000e+00
0.000000000000000e+00 0.000000000000000e+00 0.000000000000000e+00
0.000000000000000e+00 0.000000000000000e+00 0.000000000000000e+00
0.000000000000000e+00 0.000000000000000e+00 0.000000000000000e+00
0.000000000000000e+00 0.000000000000000e+00 0.000000000000000e+00
0.000000000000000e+00 0.000000000000000e+00 0.000000000000000e+00
0.000000000000000e+00 0.000000000000000e+00 0.000000000000000e+00
0.000000000000000e+00 0.000000000000000e+00 0.000000000000000e+00
0.000000000000000e+00 0.000000000000000e+00 0.000000000000000e+00
0.000000000000000e+00 0.000000000000000e+00 0.000000000000000e+00
0.000000000000000e+00 0.000000000000000e+00 0.000000000000000e+00
0.000000000000000e+00 0.000000000000000e+00 0.000000000000000e+00
0.000000000000000e+00 0.000000000000000e+00 0.000000000000000e+00
0.000000000000000e+00 0.000000000000000e+00 0.000000000000000e+00
0.000000000000000e+00 0.000000000000000e+00 0.000000000000000e+00
0.000000000000000e+00 0.000000000000000e+00 0.000000000000000e+00
0.000000000000000e+00 0.000000000000000e+00 0.000000000000000e+00
0.000000000000000e+00 0.000000000000000e+00 0.000000000000000e+00
0.000000000000000e+00 0.000000000000000e+00 0.000000000000000e+00
0.000000000000000e+00 0.000000000000000e+00 0.000000000000000e+00
0.000000000000000e+00 0.000000000000000e+00 0.000000000000000e+00
0.000000000000000e+00 0.000000000000000e+00 0.000000000000000e+00
0.000000000000000e+00 0.000000000000000e+00 0.000000000000000e+00
0.000000000000000e+00 0.000000000000000e+00 0.000000000000000e+00
0.000000000000000e+00 0.000000000000000e+00 0.000000000000000e+00
0.000000000000000e+00 0.000000000000000e+00 0.000000000000000e+00
0.000000000000000e+00 0.000000000000000e+00 0.000000000000000e+00
0.000000000000000e+00 0.000000000000000e+00 0.000000000000000e+00
0.000000000000000e+00 0.000000000000000e+00 0.000000000000000e+00
0.000000000000000e+00 0.000000000000000e+00 0.000000000000000e+00
0.000000000000000e+00 0.000000000000000e+00 0.000000000000000e+00
0.000000000000000e+00 0.000000000000000e+00 0.000000000000000e+00
0.000000000000000e+00 0.000000000000000e+00 0.000000000000000e+00
0.000000000000000e+00 0.000000000000000e+00 0.000000000000000e+00
0.000000000000000e+00 0.000000000000000e+00 0.000000000000000e+00
0.000000000000000e+00 0.000000000000000e+00 0.000000000000000e+00
0.000000000000000e+00 0.000000000000000e+00 0.000000000000000e+00
0.000000000000000e+00 0.000000000000000e+00 0.000000000000000e+00
0.000000000000000e+00 0.000000000000000e+00 0.000000000000000e+00
0.000000000000000e+00 0.000000000000000e+00 0.000000000000000e+00
0.000000000000000e+00 0.000000000000000e+00 0.000000000000000e+00
0.000000000000000e+00 0.000000000000000e+00 0.000000000000000e+00
0.000000000000000e+00 0.000000000000000e+00 0.000000000000000e+00
0.000000000000000e+00 0.000000000000000e+00 0.000000000000000e+00
0.000000000000000e+00 0.000000000000000e+00 0.000000000000000e+00
0.000000000000000e+00 0.000000000000000e+00 0.000000000000000e+00
0.000000000000000e+00 0.000000000000000e+00 0.000000000000000e+00
0.000000000000000e+00 0.000000000000000e+00 0.000000000000000e+00
0.000000000000000e+00 0.000000000000000e+00 0.000000000000000e+00
0.000000000000000e+00 0.000000000000000e+00 0.000000000000000e+00
0.000000000000000e+00 0.000000000000000e+00 0.000000000000000e+00
0.000000000000000e+00 0.000000000000000e+00 0.000000000000000e+00
0.000000000000000e+00 0.000000000000000e+00 0.000000000000000e+00
0.000000000000000e+00 0.000000000000000e+00 0.000000000000000e+00
0.000000000000000e+00 0.000000000000000e+00 0.000000000000000e+00
0.000000000000000e+00 0.000000000000000e+00 0.000000000000000e+00
0.000000000000000e+00 0.000000000000000e+00 0.000000000000000e+00
0.000000000000000e+00 0.000000000000000e+00 0.000000000000000e+00
0.000000000000000e+00 0.000000000000000e+00 0.000000000000000e+00
0.000000000000000e+00 0.000000000000000e+00 0.000000000000000e+00
0.000000000000000e+00 0.000000000000000e+00 0.000000000000000e+00
0.000000000000000e+00 0.000000000000000e+00 0.000000000000000e+00
0.000000000000000e+00 0.000000000000000e+00 0.000000000000000e+00
0.000000000000000e+00 0.000000000000000e+00 0.000000000000000e+00
0.000000000000000e+00 0.000000000000000e+00 0.000000000000000e+00
0.000000000000000e+00 0.000000000000000e+00 0.000000000000000e+00
0.000000000000000e+00 0.000000000000000e+00 0.000000000000000e+00
0.000000000000000e+00 0.000000000000000e+00 0.000000000000000e+00
0.000000000000000e+00 0.000000000000000e+00 0.000000000000000e+00
0.000000000000000e+00 0.000000000000000e+00 0.000000000000000e+00
0.000000000000000e+00 0.000000000000000e+00 0.000000000000000e+00
0.000000000000000e+00 0.000000000000000e+00 0.000000000000000e+00
0.000000000000000e+00 0.000000000000000e+00 0.000000000000000e+00
0.000000000000000e+00 0.000000000000000e+00 0.000000000000000e+00
0.000000000000000e+00 0.000000000000000e+00 0.000000000000000e+00
0.000000000000000e+00 0.000000000000000e+00 0.000000000000000e+00
0.000000000000000e+00 0.000000000000000e+00 0.000000000000000e+00
0.000000000000000e+00 0.000000000000000e+00 0.000000000000000e+00
0.000000000000000e+00 0.000000000000000e+00 0.000000000000000e+00
0.000000000000000e+00 0.000000000000000e+00 0.000000000000000e+00
0.000000000000000e+00 0.000000000000000e+00 0.000000000000000e+00
0.000000000000000e+00 0.000000000000000e+00 0.000000000000000e+00
0.000000000000000e+00 0.000000000000000e+00 0.000000000000000e+00
0.000000000000000e+00 0.000000000000000e+00 0.000000000000000e+00
0.000000000000000e+00 0.000000000000000e+00 0.000000000000000e+00
0.000000000000000e+00 0.000000000000000e+00 0.000000000000000e+00
0.000000000000000e+00 0.000000000000000e+00 0.000000000000000e+00
0.000000000000000e+00 0.000000000000000e+00 0.000000000000000e+00
0.000000000000000e+00 0.000000000000000e+00 0.000000000000000e+00
0.000000000000000e+00 0.000000000000000e+00 0.000000000000000e+00
0.000000000000000e+00 0.000000000000000e+00 0.000000000000000e+00
0.000000000000000e+00 0.000000000000000e+00 0.000000000000000e+00
0.000000000000000e+00 0.000000000000000e+00 0.000000000000000e+00
0.000000000000000e+00 0.000000000000000e+00 0.000000000000000e+00
0.000000000000000e+00 0.000000000000000e+00 0.000000000000000e+00
0.000000000000000e+00 0.000000000000000e+00 0.000000000000000e+00
0.000000000000000e+00 0.000000000000000e+00 0.000000000000000e+00
0.000000000000000e+00 0.000000000000000e+00 0.000000000000000e+00
0.000000000000000e+00 0.000000000000000e+00 0.000000000000000e+00
0.000000000000000e+00 0.000000000000000e+00 0.000000000000000e+00
0.000000000000000e+00 0.000000000000000e+00 0.000000000000000e+00
0.000000000000000e+00 0.000000000000000e+00 0.000000000000000e+00
0.000000000000000e+00 0.000000000000000e+00 0.000000000000000e+00
0.000000000000000e+00 0.000000000000000e+00 0.000000000000000e+00
0.000000000000000e+00 0.000000000000000e+00 0.000000000000000e+00
0.000000000000000e+00 0.000000000000000e+00 0.000000000000000e+00
0.000000000000000e+00 0.000000000000000e+00 0.000000000000000e+00
0.000000000000000e+00 0.000000000000000e+00 0.000000000000000e+00
0.000000000000000e+00 0.000000000000000e+00 0.000000000000000e+00
0.000000000000000e+00 0.000000000000000e+00 0.000000000000000e+00
0.000000000000000e+00 0.000000000000000e+00 0.000000000000000e+00
0.000000000000000e+00 0.000000000000000e+00 0.000000000000000e+00
0.000000000000000e+00 0.000000000000000e+00 0.000000000000000e+00
0.000000000000000e+00 0.000000000000000e+00 0.000000000000000e+00
0.000000000000000e+00 0.000000000000000e+00 0.000000000000000e+00
0.000000000000000e+00 0.000000000000000e+00 0.000000000000000e+00
0.000000000000000e+00 0.000000000000000e+00 0.000000000000000e+00
0.000000000000000e+00 0.000000000000000e+00 0.000000000000000e+00
0.000000000000000e+00 0.000000000000000e+00 0.000000000000000e+00
0.000000000000000e+00 0.000000000000000e+00 0.000000000000000e+00
0.000000000000000e+00 0.000000000000000e+00 0.000000000000000e+00
0.000000000000000e+00 0.000000000000000e+00 0.000000000000000e+00
0.000000000000000e+00 0.000000000000000e+00 0.000000000000000e+00
0.000000000000000e+00 0.000000000000000e+00 0.000000000000000e+00
0.000000000000000e+00 0.000000000000000e+00 0.000000000000000e+00
0.000000000000000e+00 0.000000000000000e+00 0.000000000000000e+00
0.000000000000000e+00 0.000000000000000e+00 0.000000000000000e+00
0.000000000000000e+00 0.000000000000000e+00 0.000000000000000e+00
0.000000000000000e+00 0.000000000000000e+00 0.000000000000000e+00
0.000000000000000e+00 0.000000000000000e+00 0.000000000000000e+00
0.000000000000000e+00 0.000000000000000e+00 0.000000000000000e+00
0.000000000000000e+00 0.000000000000000e+00 0.000000000000000e+00
0.000000000000000e+00 0.000000000000000e+00 0.000000000000000e+00
0.000000000000000e+00 0.000000000000000e+00 0.000000000000000e+00
0.000000000000000e+00 0.000000000000000e+00 0.000000000000000e+00
0.000000000000000e+00 0.000000000000000e+00 0.000000000000000e+00
0.000000000000000e+00 0.000000000000000e+00 0.000000000000000e+00
0.000000000000000e+00 0.000000000000000e+00 0.000000000000000e+00
0.000000000000000e+00 0.000000000000000e+00 0.000000000000000e+00
0.000000000000000e+00 0.000000000000000e+00 0.000000000000000e+00