<?xml version="1.0" ?> 
<!-- 
# vtk DataFile Version 3.0
-->
<VTKFile type="UnstructuredGrid" version="0.1" compressor="vtkZLibDataCompressor" byte_order="LittleEndian">
  <UnstructuredGrid>
    <FieldData>
      <DataArray type="Float64" Name="TIME" NumberOfTuples="1" format="ascii">
1.000000000000000e+00 
      </DataArray>
    </FieldData>

    <Piece NumberOfPoints="616" NumberOfCells="58" >
      <Points>
        <DataArray type="Float64" NumberOfComponents="3" format="ascii">
0.000000000000000e+00 1.500000000000000e+00 -5.000000000000000e-01
0.000000000000000e+00 1.250000000000000e+00 -5.000000000000000e-01
8.838834764830000e-01 8.838834764830000e-01 -5.000000000000000e-01
1.500000000000000e+00 1.500000000000000e+00 -5.000000000000000e-01
0.000000000000000e+00 1.500000000000000e+00 5.000000000000000e-01
0.000000000000000e+00 1.250000000000000e+00 5.000000000000000e-01
8.838834764830000e-01 8.838834764830000e-01 5.000000000000000e-01
1.500000000000000e+00 1.500000000000000e+00 5.000000000000000e-01
0.000000000000000e+00 1.375000000000000e+00 -5.000000000000000e-01
4.783542904561372e-01 1.154849415639061e+00 -5.000000000000000e-01
1.082106781186750e+00 1.082106781186750e+00 -5.000000000000000e-01
7.500000000000000e-01 1.500000000000000e+00 -5.000000000000000e-01
0.000000000000000e+00 1.375000000000000e+00 5.000000000000000e-01
4.783542904561372e-01 1.154849415639061e+00 5.000000000000000e-01
1.082106781186750e+00 1.082106781186750e+00 5.000000000000000e-01
7.500000000000000e-01 1.500000000000000e+00 5.000000000000000e-01
0.000000000000000e+00 1.500000000000000e+00 0.000000000000000e+00
0.000000000000000e+00 1.250000000000000e+00 0.000000000000000e+00
8.838834764830000e-01 8.838834764830000e-01 0.000000000000000e+00
1.500000000000000e+00 1.500000000000000e+00 0.000000000000000e+00
7.500000000000000e-01 1.500000000000000e+00 1.387778780781446e-17
4.783542904561372e-01 1.154849415639061e+00 1.387778780781446e-17
0.000000000000000e+00 1.375000000000000e+00 0.000000000000000e+00
1.082106781186750e+00 1.082106781186750e+00 0.000000000000000e+00
5.701834323650968e-01 1.298879532511339e+00 -5.000000000000000e-01
5.701834323650968e-01 1.298879532511339e+00 5.000000000000000e-01
5.701834323650968e-01 1.298879532511339e+00 -2.602085213965211e-17
1.500000000000000e+00 0.000000000000000e+00 5.000000000000000e-01
1.250000000000000e+00 0.000000000000000e+00 5.000000000000000e-01
8.838834764830000e-01 8.838834764830000e-01 5.000000000000000e-01
1.500000000000000e+00 1.500000000000000e+00 5.000000000000000e-01
1.500000000000000e+00 0.000000000000000e+00 -5.000000000000000e-01
1.250000000000000e+00 0.000000000000000e+00 -5.000000000000000e-01
8.838834764830000e-01 8.838834764830000e-01 -5.000000000000000e-01
1.500000000000000e+00 1.500000000000000e+00 -5.000000000000000e-01
1.375000000000000e+00 0.000000000000000e+00 5.000000000000000e-01
1.154849415639061e+00 4.783542904561372e-01 5.000000000000000e-01
1.082106781186750e+00 1.082106781186750e+00 5.000000000000000e-01
1.500000000000000e+00 7.500000000000000e-01 5.000000000000000e-01
1.375000000000000e+00 0.000000000000000e+00 -5.000000000000000e-01
1.154849415639061e+00 4.783542904561372e-01 -5.000000000000000e-01
1.082106781186750e+00 1.082106781186750e+00 -5.000000000000000e-01
1.500000000000000e+00 7.500000000000000e-01 -5.000000000000000e-01
1.500000000000000e+00 0.000000000000000e+00 0.000000000000000e+00
1.250000000000000e+00 0.000000000000000e+00 0.000000000000000e+00
8.838834764830000e-01 8.838834764830000e-01 0.000000000000000e+00
1.500000000000000e+00 1.500000000000000e+00 0.000000000000000e+00
1.500000000000000e+00 7.500000000000000e-01 -1.387778780781446e-17
1.154849415639061e+00 4.783542904561372e-01 -1.387778780781446e-17
1.375000000000000e+00 0.000000000000000e+00 0.000000000000000e+00
1.082106781186750e+00 1.082106781186750e+00 0.000000000000000e+00
1.298879532511339e+00 5.701834323650968e-01 5.000000000000000e-01
1.298879532511339e+00 5.701834323650968e-01 -5.000000000000000e-01
1.298879532511339e+00 5.701834323650968e-01 2.602085213965211e-17
1.500000000000000e+00 0.000000000000000e+00 -5.000000000000000e-01
1.250000000000000e+00 0.000000000000000e+00 -5.000000000000000e-01
8.838834764830000e-01 -8.838834764830000e-01 -5.000000000000000e-01
1.500000000000000e+00 -1.500000000000000e+00 -5.000000000000000e-01
1.500000000000000e+00 0.000000000000000e+00 5.000000000000000e-01
1.250000000000000e+00 0.000000000000000e+00 5.000000000000000e-01
8.838834764830000e-01 -8.838834764830000e-01 5.000000000000000e-01
1.500000000000000e+00 -1.500000000000000e+00 5.000000000000000e-01
1.375000000000000e+00 0.000000000000000e+00 -5.000000000000000e-01
1.154849415639061e+00 -4.783542904561372e-01 -5.000000000000000e-01
1.082106781186750e+00 -1.082106781186750e+00 -5.000000000000000e-01
1.500000000000000e+00 -7.500000000000000e-01 -5.000000000000000e-01
1.375000000000000e+00 0.000000000000000e+00 5.000000000000000e-01
1.154849415639061e+00 -4.783542904561372e-01 5.000000000000000e-01
1.082106781186750e+00 -1.082106781186750e+00 5.000000000000000e-01
1.500000000000000e+00 -7.500000000000000e-01 5.000000000000000e-01
1.500000000000000e+00 0.000000000000000e+00 0.000000000000000e+00
1.250000000000000e+00 0.000000000000000e+00 0.000000000000000e+00
8.838834764830000e-01 -8.838834764830000e-01 0.000000000000000e+00
1.500000000000000e+00 -1.500000000000000e+00 0.000000000000000e+00
1.500000000000000e+00 -7.500000000000000e-01 1.387778780781446e-17
1.154849415639061e+00 -4.783542904561372e-01 1.387778780781446e-17
1.375000000000000e+00 0.000000000000000e+00 0.000000000000000e+00
1.082106781186750e+00 -1.082106781186750e+00 0.000000000000000e+00
1.298879532511339e+00 -5.701834323650968e-01 -5.000000000000000e-01
1.298879532511339e+00 -5.701834323650968e-01 5.000000000000000e-01
1.298879532511339e+00 -5.701834323650968e-01 -2.602085213965211e-17
0.000000000000000e+00 -1.500000000000000e+00 5.000000000000000e-01
0.000000000000000e+00 -1.250000000000000e+00 5.000000000000000e-01
8.838834764830000e-01 -8.838834764830000e-01 5.000000000000000e-01
1.500000000000000e+00 -1.500000000000000e+00 5.000000000000000e-01
0.000000000000000e+00 -1.500000000000000e+00 -5.000000000000000e-01
0.000000000000000e+00 -1.250000000000000e+00 -5.000000000000000e-01
8.838834764830000e-01 -8.838834764830000e-01 -5.000000000000000e-01
1.500000000000000e+00 -1.500000000000000e+00 -5.000000000000000e-01
0.000000000000000e+00 -1.375000000000000e+00 5.000000000000000e-01
4.783542904561372e-01 -1.154849415639061e+00 5.000000000000000e-01
1.082106781186750e+00 -1.082106781186750e+00 5.000000000000000e-01
7.500000000000000e-01 -1.500000000000000e+00 5.000000000000000e-01
0.000000000000000e+00 -1.375000000000000e+00 -5.000000000000000e-01
4.783542904561372e-01 -1.154849415639061e+00 -5.000000000000000e-01
1.082106781186750e+00 -1.082106781186750e+00 -5.000000000000000e-01
7.500000000000000e-01 -1.500000000000000e+00 -5.000000000000000e-01
0.000000000000000e+00 -1.500000000000000e+00 0.000000000000000e+00
0.000000000000000e+00 -1.250000000000000e+00 0.000000000000000e+00
8.838834764830000e-01 -8.838834764830000e-01 0.000000000000000e+00
1.500000000000000e+00 -1.500000000000000e+00 0.000000000000000e+00
7.500000000000000e-01 -1.500000000000000e+00 -1.387778780781446e-17
4.783542904561372e-01 -1.154849415639061e+00 -1.387778780781446e-17
0.000000000000000e+00 -1.375000000000000e+00 0.000000000000000e+00
1.082106781186750e+00 -1.082106781186750e+00 0.000000000000000e+00
5.701834323650968e-01 -1.298879532511339e+00 5.000000000000000e-01
5.701834323650968e-01 -1.298879532511339e+00 -5.000000000000000e-01
5.701834323650968e-01 -1.298879532511339e+00 2.602085213965211e-17
0.000000000000000e+00 1.500000000000000e+00 5.000000000000000e-01
0.000000000000000e+00 1.250000000000000e+00 5.000000000000000e-01
-8.838834764830000e-01 8.838834764830000e-01 5.000000000000000e-01
-1.500000000000000e+00 1.500000000000000e+00 5.000000000000000e-01
0.000000000000000e+00 1.500000000000000e+00 -5.000000000000000e-01
0.000000000000000e+00 1.250000000000000e+00 -5.000000000000000e-01
-8.838834764830000e-01 8.838834764830000e-01 -5.000000000000000e-01
-1.500000000000000e+00 1.500000000000000e+00 -5.000000000000000e-01
0.000000000000000e+00 1.375000000000000e+00 5.000000000000000e-01
-4.783542904561372e-01 1.154849415639061e+00 5.000000000000000e-01
-1.082106781186750e+00 1.082106781186750e+00 5.000000000000000e-01
-7.500000000000000e-01 1.500000000000000e+00 5.000000000000000e-01
0.000000000000000e+00 1.375000000000000e+00 -5.000000000000000e-01
-4.783542904561372e-01 1.154849415639061e+00 -5.000000000000000e-01
-1.082106781186750e+00 1.082106781186750e+00 -5.000000000000000e-01
-7.500000000000000e-01 1.500000000000000e+00 -5.000000000000000e-01
0.000000000000000e+00 1.500000000000000e+00 0.000000000000000e+00
0.000000000000000e+00 1.250000000000000e+00 0.000000000000000e+00
-8.838834764830000e-01 8.838834764830000e-01 0.000000000000000e+00
-1.500000000000000e+00 1.500000000000000e+00 0.000000000000000e+00
-7.500000000000000e-01 1.500000000000000e+00 -1.387778780781446e-17
-4.783542904561372e-01 1.154849415639061e+00 -1.387778780781446e-17
0.000000000000000e+00 1.375000000000000e+00 0.000000000000000e+00
-1.082106781186750e+00 1.082106781186750e+00 0.000000000000000e+00
-5.701834323650968e-01 1.298879532511339e+00 5.000000000000000e-01
-5.701834323650968e-01 1.298879532511339e+00 -5.000000000000000e-01
-5.701834323650968e-01 1.298879532511339e+00 2.602085213965211e-17
-1.500000000000000e+00 0.000000000000000e+00 -5.000000000000000e-01
-1.250000000000000e+00 0.000000000000000e+00 -5.000000000000000e-01
-8.838834764830000e-01 8.838834764830000e-01 -5.000000000000000e-01
-1.500000000000000e+00 1.500000000000000e+00 -5.000000000000000e-01
-1.500000000000000e+00 0.000000000000000e+00 5.000000000000000e-01
-1.250000000000000e+00 0.000000000000000e+00 5.000000000000000e-01
-8.838834764830000e-01 8.838834764830000e-01 5.000000000000000e-01
[...]
  <PointData>
        <DataArray type="Float64" Name="displacement" NumberOfComponents="3" format="ascii">
4.521499578439237e-03 -3.271528516724100e-02 0.000000000000000e+00
4.533032283432689e-03 -3.012958235914238e-02 0.000000000000000e+00
7.326580624140055e-03 -2.587501294840142e-02 0.000000000000000e+00
8.794017558600195e-03 -3.162259127610405e-02 0.000000000000000e+00
4.521584488119544e-03 -3.274421391745029e-02 3.127334882395436e-03
4.529351915195158e-03 -3.015780111631318e-02 3.142336173605229e-03
7.319952223026336e-03 -2.587261165643302e-02 3.097888442840705e-03
8.812520256778523e-03 -3.159174761829392e-02 3.019333412451165e-03
4.528699598699244e-03 -3.143752466457147e-02 0.000000000000000e+00
6.049696014277776e-03 -2.899146233244641e-02 0.000000000000000e+00
7.813117048614697e-03 -2.771558969885853e-02 0.000000000000000e+00
6.551600791290926e-03 -3.225254152186034e-02 0.000000000000000e+00
4.525963273157842e-03 -3.146661371782087e-02 3.128671335339080e-03
6.056390798715369e-03 -2.900663880388662e-02 3.103842978074928e-03
7.815121441440939e-03 -2.770368602107842e-02 3.087012059014200e-03
6.555843222239744e-03 -3.224931123407315e-02 3.081428490097128e-03
4.522789580480769e-03 -3.272879969125039e-02 1.567301972811657e-03
4.533792137856395e-03 -3.014559200618209e-02 1.565595439590670e-03
7.323679614542255e-03 -2.587671568293646e-02 1.542590770826918e-03
8.794628863349491e-03 -3.162117996117909e-02 1.520474380622286e-03
6.547832528907856e-03 -3.225333209956319e-02 1.543168516943850e-03
6.046728865200262e-03 -2.900109212840911e-02 1.552493702914281e-03
4.529607388074122e-03 -3.145259954657189e-02 1.566143071597288e-03
7.810452378277700e-03 -2.771754864287682e-02 1.541079673730763e-03
6.191503781428214e-03 -3.036057011567591e-02 0.000000000000000e+00
6.199046769173306e-03 -3.036778503335931e-02 3.090407874190005e-03
6.189411070444906e-03 -3.036660724908823e-02 1.549663568404262e-03
9.257040206042550e-03 -1.601456408385299e-02 3.205870247034023e-03
8.429533843340482e-03 -1.602732007583589e-02 3.135143437875997e-03
7.319952223026336e-03 -2.587261165643302e-02 3.097888442840705e-03
8.812520256778523e-03 -3.159174761829392e-02 3.019333412451165e-03
9.353112308532743e-03 -1.601656028259563e-02 0.000000000000000e+00
8.507022459046790e-03 -1.603369389245795e-02 0.000000000000000e+00
7.326580624140055e-03 -2.587501294840142e-02 0.000000000000000e+00
8.794017558600195e-03 -3.162259127610405e-02 0.000000000000000e+00
8.853537932466479e-03 -1.602085961188572e-02 3.174484540166464e-03
8.154179048518544e-03 -2.136984225908269e-02 3.104864645596069e-03
7.815121441440939e-03 -2.770368602107842e-02 3.087012059014200e-03
9.189245335992989e-03 -2.398708699457213e-02 3.108810719688135e-03
8.940724455873321e-03 -1.602567482166631e-02 0.000000000000000e+00
8.192826554852354e-03 -2.137903219453795e-02 0.000000000000000e+00
7.813117048614697e-03 -2.771558969885853e-02 0.000000000000000e+00
9.212890102545421e-03 -2.399018892992889e-02 0.000000000000000e+00
9.338716767719834e-03 -1.601952169163531e-02 1.584652812061982e-03
8.501214586985171e-03 -1.603500860402891e-02 1.554715028074985e-03
7.323679614542254e-03 -2.587671568293646e-02 1.542590770826918e-03
8.794628863349491e-03 -3.162117996117909e-02 1.520474380622286e-03
9.203940451691225e-03 -2.399788408557372e-02 1.556871404850110e-03
8.186829593642923e-03 -2.138040747785383e-02 1.546381562516417e-03
8.930563555022360e-03 -1.602727478843038e-02 1.571492495062429e-03
7.810452378277701e-03 -2.771754864287682e-02 1.541079673730763e-03
8.604022914171438e-03 -2.221387075987817e-02 3.123843690031511e-03
8.639950170670532e-03 -2.222353884407026e-02 0.000000000000000e+00
8.631184604709439e-03 -2.222662863637946e-02 1.555106296526780e-03
9.353112308532743e-03 -1.601656028259563e-02 0.000000000000000e+00
8.507022459046790e-03 -1.603369389245795e-02 0.000000000000000e+00
7.405736339997128e-03 -6.306362398296117e-03 0.000000000000000e+00
9.221023108148825e-03 0.000000000000000e+00 0.000000000000000e+00
9.257040206042550e-03 -1.601456408385299e-02 3.205870247034023e-03
8.429533843340482e-03 -1.602732007583589e-02 3.135143437875997e-03
7.351549933520473e-03 -6.308007124579753e-03 3.081907374262995e-03
9.161955361247098e-03 0.000000000000000e+00 3.133193772368687e-03
8.940724455873321e-03 -1.602567482166631e-02 0.000000000000000e+00
8.213717258128309e-03 -1.069827375385451e-02 0.000000000000000e+00
7.965912834745075e-03 -4.334653444637222e-03 0.000000000000000e+00
9.304902636717523e-03 -7.927424743898908e-03 0.000000000000000e+00
8.853537932466479e-03 -1.602085961188572e-02 3.174484540166464e-03
8.142599848021570e-03 -1.069878068087049e-02 3.117733016433738e-03
7.906057348749019e-03 -4.337814301095331e-03 3.106669739662228e-03
9.228756110323434e-03 -7.924372513658854e-03 3.176984558439792e-03
9.338716767719834e-03 -1.601952169163531e-02 1.584652812061982e-03
8.501214586985171e-03 -1.603500860402891e-02 1.554715028074985e-03
7.396444285889618e-03 -6.305586611118904e-03 1.533292865186154e-03
9.206379325606657e-03 0.000000000000000e+00 1.569782619323025e-03
9.286756516239556e-03 -7.922270180946499e-03 1.584975220831895e-03
8.202763305002145e-03 -1.069784883258260e-02 1.551739535722489e-03
8.930563555022359e-03 -1.602727478843038e-02 1.571492495062429e-03
7.954007540056714e-03 -4.331017902594689e-03 1.547061144139518e-03
8.674632433660016e-03 -9.794906162186543e-03 0.000000000000000e+00
8.598550050640167e-03 -9.794846857268639e-03 3.153785509197437e-03
8.659551779954694e-03 -9.793178931874246e-03 1.568618015148032e-03
4.643532302787265e-03 0.000000000000000e+00 2.963389099877885e-03
4.645636071665284e-03 -2.512395081523357e-03 3.011879937487019e-03
7.351549933520473e-03 -6.308007124579753e-03 3.081907374262995e-03
9.161955361247098e-03 0.000000000000000e+00 3.133193772368687e-03
4.642038224780833e-03 0.000000000000000e+00 0.000000000000000e+00
4.644663048832450e-03 -2.517569220170204e-03 0.000000000000000e+00
7.405736339997128e-03 -6.306362398296117e-03 0.000000000000000e+00
9.221023108148825e-03 0.000000000000000e+00 0.000000000000000e+00
4.645556533145475e-03 -1.248181454915852e-03 2.979650561893460e-03
6.136154403724873e-03 -3.417696559783114e-03 3.023681768817324e-03
7.906057348749019e-03 -4.337814301095331e-03 3.106669739662228e-03
6.866685419546076e-03 0.000000000000000e+00 3.033799137831418e-03
4.644454328146063e-03 -1.250410450250438e-03 0.000000000000000e+00
6.168485000227900e-03 -3.422251122793632e-03 0.000000000000000e+00
7.965912834745075e-03 -4.334653444637222e-03 0.000000000000000e+00
6.910242578734122e-03 0.000000000000000e+00 0.000000000000000e+00
4.642084765567513e-03 0.000000000000000e+00 1.493141226873028e-03
4.644385762385727e-03 -2.508970797812400e-03 1.504619082943125e-03
7.396444285889618e-03 -6.305586611118904e-03 1.533292865186154e-03
9.206379325606657e-03 0.000000000000000e+00 1.569782619323025e-03
6.902690221311477e-03 0.000000000000000e+00 1.519573788299539e-03
6.162495777912676e-03 -3.416002578367267e-03 1.512171646821427e-03
4.644117243604914e-03 -1.244485080118552e-03 1.498173364491943e-03
7.954007540056715e-03 -4.331017902594689e-03 1.547061144139517e-03
6.346596051716847e-03 -2.014627126974501e-03 3.017027708797036e-03
6.382336450326627e-03 -2.015956875625850e-03 0.000000000000000e+00
6.376412497904155e-03 -2.011632631954469e-03 1.511991492139630e-03
4.521584488119544e-03 -3.274421391745029e-02 3.127334882395436e-03
4.529351915195158e-03 -3.015780111631318e-02 3.142336173605229e-03
1.823188032512089e-03 -2.591591279811202e-02 3.108600330993468e-03
0.000000000000000e+00 -3.182960770662197e-02 2.977066794539434e-03
4.521499578439237e-03 -3.271528516724100e-02 0.000000000000000e+00
4.533032283432689e-03 -3.012958235914238e-02 0.000000000000000e+00
1.820126829581160e-03 -2.593712771061284e-02 0.000000000000000e+00
0.000000000000000e+00 -3.190236521462680e-02 0.000000000000000e+00
4.525963273157842e-03 -3.146661371782087e-02 3.128671335339080e-03
3.017042416775700e-03 -2.900961179050985e-02 3.097190736157121e-03
1.259816074869244e-03 -2.778203434050847e-02 3.080055714838680e-03
2.423764937470399e-03 -3.228483482470774e-02 3.042266194930248e-03
4.528699598699244e-03 -3.143752466457147e-02 0.000000000000000e+00
3.027044307027518e-03 -2.901003649924813e-02 0.000000000000000e+00
1.262561081177869e-03 -2.781882605543106e-02 0.000000000000000e+00
2.425865586866771e-03 -3.231520830477246e-02 0.000000000000000e+00
4.522789580480769e-03 -3.272879969125039e-02 1.567301972811657e-03
4.533792137856396e-03 -3.014559200618209e-02 1.565595439590670e-03
1.820777068907104e-03 -2.593906796878584e-02 1.548476836931320e-03
0.000000000000000e+00 -3.189418603922928e-02 1.502155856869494e-03
2.432750355223906e-03 -3.231331242238816e-02 1.527983975227182e-03
3.030993315923339e-03 -2.901879415753859e-02 1.549472506076865e-03
4.529607388074121e-03 -3.145259954657189e-02 1.566143071597288e-03
1.264111292657023e-03 -2.781852908737570e-02 1.540011440590517e-03
2.838636021914896e-03 -3.037460419044553e-02 3.073733628600772e-03
2.848615501400480e-03 -3.038670778439661e-02 0.000000000000000e+00
2.852370056576095e-03 -3.039152598543597e-02 1.541953889178684e-03
0.000000000000000e+00 -1.611718983290472e-02 0.000000000000000e+00
8.387630930617278e-04 -1.612972060344643e-02 0.000000000000000e+00
1.820126829581160e-03 -2.593712771061284e-02 0.000000000000000e+00
0.000000000000000e+00 -3.190236521462680e-02 0.000000000000000e+00
0.000000000000000e+00 -1.611294016837268e-02 3.216362259292073e-03
8.456076240099498e-04 -1.612705890246847e-02 3.182999352835253e-03
1.823188032512089e-03 -2.591591279811202e-02 3.108600330993468e-03
0.000000000000000e+00 -3.182960770662197e-02 2.977066794539434e-03
4.135793823350150e-04 -1.612676875802164e-02 0.000000000000000e+00
1.082128798610225e-03 -2.148545903857760e-02 0.000000000000000e+00
1.262561081177869e-03 -2.781882605543106e-02 0.000000000000000e+00
0.000000000000000e+00 -2.422145846978573e-02 0.000000000000000e+00
4.181725959385861e-04 -1.612339450129941e-02 3.207346334499262e-03
1.093623318002390e-03 -2.146887647366923e-02 3.140753465482975e-03
1.259816074869244e-03 -2.778203434050847e-02 3.080055714838680e-03
0.000000000000000e+00 -2.418871339785556e-02 3.134757633854480e-03
0.000000000000000e+00 -1.611642115821783e-02 1.594672652220815e-03
8.340543809669213e-04 -1.612956372437270e-02 1.578722254405927e-03
1.820777068907104e-03 -2.593906796878584e-02 1.548476836931320e-03
0.000000000000000e+00 -3.189418603922928e-02 1.502155856869494e-03
0.000000000000000e+00 -2.422217592366242e-02 1.566226302284231e-03
1.079886535121176e-03 -2.148593795026514e-02 1.566723268106349e-03
4.104579558614798e-04 -1.612607792944198e-02 1.589748916136871e-03
1.264111292657023e-03 -2.781852908737570e-02 1.540011440590517e-03
6.250303384988192e-04 -2.236641102274901e-02 0.000000000000000e+00
6.316920482129635e-04 -2.234343884890589e-02 3.155715715568330e-03
6.237673967470516e-04 -2.236656814039479e-02 1.572532410129378e-03
0.000000000000000e+00 -1.611294016837268e-02 3.216362259292073e-03
8.456076240099498e-04 -1.612705890246847e-02 3.182999352835253e-03
1.918071571207378e-03 -6.347113497101970e-03 3.097998840790891e-03
0.000000000000000e+00 0.000000000000000e+00 3.106085865511066e-03
0.000000000000000e+00 -1.611718983290472e-02 0.000000000000000e+00
8.387630930617278e-04 -1.612972060344643e-02 0.000000000000000e+00
1.888638400241595e-03 -6.340650351714981e-03 0.000000000000000e+00
0.000000000000000e+00 0.000000000000000e+00 0.000000000000000e+00
4.181725959385861e-04 -1.612339450129941e-02 3.207346334499262e-03
1.126244229028920e-03 -1.076612256248420e-02 3.147465106854787e-03
1.339662298513379e-03 -4.370180227631393e-03 3.111151006259433e-03
0.000000000000000e+00 -7.961828882845058e-03 3.163498153052539e-03
4.135793823350150e-04 -1.612676875802164e-02 0.000000000000000e+00
1.107364491770727e-03 -1.075868483875005e-02 0.000000000000000e+00
1.314135387639380e-03 -4.361692123209484e-03 0.000000000000000e+00
0.000000000000000e+00 -7.951402708581074e-03 0.000000000000000e+00
0.000000000000000e+00 -1.611642115821783e-02 1.594672652220815e-03
8.340543809669213e-04 -1.612956372437270e-02 1.578722254405927e-03
1.890023903220847e-03 -6.338958188183716e-03 1.544345344379526e-03
0.000000000000000e+00 0.000000000000000e+00 1.557838745932704e-03
0.000000000000000e+00 -7.947749832093079e-03 1.579007219459021e-03
1.106130641540578e-03 -1.075720668044373e-02 1.569317102069763e-03
4.104579558614798e-04 -1.612607792944198e-02 1.589748916136871e-03
1.314668046012174e-03 -4.357403948527053e-03 1.552848074668427e-03
6.577206636925192e-04 -9.855715603834468e-03 3.169038247741912e-03
6.444050323921620e-04 -9.846486810427272e-03 0.000000000000000e+00
6.435310830541352e-04 -9.844288748796753e-03 1.578974313188030e-03
4.642038224780833e-03 0.000000000000000e+00 0.000000000000000e+00
4.644663048832450e-03 -2.517569220170204e-03 0.000000000000000e+00
1.888638400241595e-03 -6.340650351714981e-03 0.000000000000000e+00
0.000000000000000e+00 0.000000000000000e+00 0.000000000000000e+00
4.643532302787265e-03 0.000000000000000e+00 2.963389099877885e-03
4.645636071665284e-03 -2.512395081523357e-03 3.011879937487019e-03
1.918071571207378e-03 -6.347113497101970e-03 3.097998840790891e-03
0.000000000000000e+00 0.000000000000000e+00 3.106085865511066e-03
4.644454328146063e-03 -1.250410450250438e-03 0.000000000000000e+00
3.118756230969846e-03 -3.433561038039257e-03 0.000000000000000e+00
1.314135387639380e-03 -4.361692123209484e-03 0.000000000000000e+00
2.366029525319758e-03 0.000000000000000e+00 0.000000000000000e+00
4.645556533145475e-03 -1.248181454915852e-03 2.979650561893460e-03
3.146874047941991e-03 -3.430245262825493e-03 3.031284143432101e-03
1.339662298513379e-03 -4.370180227631393e-03 3.111151006259433e-03
2.394148357470468e-03 0.000000000000000e+00 3.039093915807296e-03
4.642084765567513e-03 0.000000000000000e+00 1.493141226873028e-03
4.644385762385727e-03 -2.508970797812400e-03 1.504619082943125e-03
1.890023903220847e-03 -6.338958188183717e-03 1.544345344379526e-03
0.000000000000000e+00 0.000000000000000e+00 1.557838745932704e-03
2.367668792706386e-03 0.000000000000000e+00 1.525288499107159e-03
3.122111615886705e-03 -3.427091674019639e-03 1.517972522793418e-03
4.644117243604914e-03 -1.244485080118552e-03 1.498173364491943e-03
1.314668046012174e-03 -4.357403948527053e-03 1.552848074668428e-03
2.900440410633666e-03 -2.024563236916920e-03 0.000000000000000e+00
2.928484712769359e-03 -2.024270039862753e-03 3.024680631519961e-03
2.902646349126792e-03 -2.019966348846576e-03 1.518145772934949e-03
-8.730547531631636e-04 -1.609826767417985e-02 3.474942215553322e-03
1.891761648270115e-04 -1.991275156158577e-02 3.207057103460581e-03
1.389771203588854e-03 -1.614055870205450e-02 3.088556556386366e-03
2.076451258081888e-04 -1.228960804207453e-02 3.217861409583090e-03
-8.972623803115909e-04 -1.610094111514209e-02 1.664282304788217e-03
1.621233003745929e-04 -1.991483293885678e-02 1.601784137023136e-03
1.346590499099110e-03 -1.614069036587056e-02 1.556534367717691e-03
1.743755138745630e-04 -1.229594359906066e-02 1.606643385317520e-03
1.891761648270115e-04 -1.991275156158577e-02 3.207057103460581e-03
1.249147602598871e-03 -2.365647953548134e-02 3.110774321981489e-03
2.453311478037195e-03 -1.984644930364271e-02 3.046505722044146e-03
1.389771203588854e-03 -1.614055870205450e-02 3.088556556386366e-03
1.621233003745929e-04 -1.991483293885678e-02 1.601784137023136e-03
1.229011259294148e-03 -2.366055618657144e-02 1.560355371539827e-03
2.425789504268148e-03 -1.983704563596148e-02 1.526297350280055e-03
1.346590499099110e-03 -1.614069036587056e-02 1.556534367717691e-03
1.249147602598871e-03 -2.365647953548134e-02 3.110774321981489e-03
2.266623068454650e-03 -2.735394361746958e-02 3.104340829497638e-03
3.499632460258621e-03 -2.355084011548829e-02 3.055074529227233e-03
2.453311478037195e-03 -1.984644930364271e-02 3.046505722044146e-03
1.229011259294148e-03 -2.366055618657144e-02 1.560355371539827e-03
2.262485663437781e-03 -2.735043321679977e-02 1.545036959107584e-03
3.494382794274823e-03 -2.352545977808634e-02 1.531752116418388e-03
2.425789504268148e-03 -1.983704563596148e-02 1.526297350280055e-03
2.266623068454650e-03 -2.735394361746958e-02 3.104340829497638e-03
3.250831633959525e-03 -3.139340312754112e-02 3.172968025962645e-03
4.548240485046879e-03 -2.723204321242234e-02 3.136332450290566e-03
3.499632460258621e-03 -2.355084011548829e-02 3.055074529227233e-03
2.262485663437781e-03 -2.735043321679977e-02 1.545036959107584e-03
3.259822670293635e-03 -3.136941755693236e-02 1.542933240916859e-03
4.549154745196524e-03 -2.719627903694197e-02 1.554398045911245e-03
3.494382794274823e-03 -2.352545977808634e-02 1.531752116418388e-03
3.250831633959525e-03 -3.139340312754112e-02 3.172968025962645e-03
4.483374785170378e-03 -3.721513139656466e-02 3.426680474498152e-03
5.767183704246137e-03 -3.139310758271212e-02 3.186439864268796e-03
4.548240485046879e-03 -2.723204321242234e-02 3.136332450290566e-03
3.259822670293635e-03 -3.136941755693236e-02 1.542933240916859e-03
4.487656748120595e-03 -3.713583129453509e-02 1.494213287623559e-03
5.762700647801423e-03 -3.135845523797157e-02 1.549342958240556e-03
4.549154745196524e-03 -2.719627903694197e-02 1.554398045911245e-03
2.076451258081888e-04 -1.228960804207453e-02 3.217861409583090e-03
1.389771203588854e-03 -1.614055870205450e-02 3.088556556386366e-03
2.499274296878505e-03 -1.250638572373656e-02 3.038145657660236e-03
1.310880205295602e-03 -8.585948298809650e-03 3.116721913483533e-03
1.743755138745630e-04 -1.229594359906066e-02 1.606643385317520e-03
1.346590499099110e-03 -1.614069036587056e-02 1.556534367717691e-03
2.462414837322078e-03 -1.250834515550488e-02 1.521437144589983e-03
1.274102826784757e-03 -8.586875467628921e-03 1.562897152028509e-03
1.389771203588854e-03 -1.614055870205450e-02 3.088556556386366e-03
2.453311478037195e-03 -1.984644930364271e-02 3.046505722044146e-03
3.560304818509668e-03 -1.620419696865263e-02 3.000483792613268e-03
2.499274296878505e-03 -1.250638572373656e-02 3.038145657660236e-03
1.346590499099110e-03 -1.614069036587056e-02 1.556534367717691e-03
2.425789504268148e-03 -1.983704563596148e-02 1.526297350280055e-03
3.540503560540547e-03 -1.619665746907591e-02 1.498722926983851e-03
2.462414837322078e-03 -1.250834515550488e-02 1.521437144589983e-03
2.453311478037195e-03 -1.984644930364271e-02 3.046505722044146e-03
3.499632460258621e-03 -2.355084011548829e-02 3.055074529227233e-03
4.618767065394985e-03 -1.987759894350823e-02 3.005755486474522e-03
3.560304818509668e-03 -1.620419696865263e-02 3.000483792613268e-03
2.425789504268148e-03 -1.983704563596148e-02 1.526297350280055e-03
3.494382794274823e-03 -2.352545977808634e-02 1.531752116418388e-03
4.615794793981776e-03 -1.985502864322251e-02 1.502619339997352e-03
3.540503560540547e-03 -1.619665746907591e-02 1.498722926983851e-03
3.499632460258621e-03 -2.355084011548829e-02 3.055074529227233e-03
4.548240485046879e-03 -2.723204321242234e-02 3.136332450290566e-03
5.677015867309255e-03 -2.353628224072861e-02 3.050538619063010e-03
4.618767065394985e-03 -1.987759894350823e-02 3.005755486474522e-03
3.494382794274823e-03 -2.352545977808634e-02 1.531752116418388e-03
4.549154745196524e-03 -2.719627903694197e-02 1.554398045911245e-03
5.679524557428962e-03 -2.350559673453333e-02 1.528410940343204e-03
4.615794793981776e-03 -1.985502864322251e-02 1.502619339997352e-03
4.548240485046879e-03 -2.723204321242234e-02 3.136332450290566e-03
5.767183704246137e-03 -3.139310758271212e-02 3.186439864268796e-03
6.832764013109625e-03 -2.732294399036334e-02 3.106713082754856e-03
5.677015867309255e-03 -2.353628224072861e-02 3.050538619063010e-03
4.549154745196524e-03 -2.719627903694197e-02 1.554398045911245e-03
5.762700647801423e-03 -3.135845523797157e-02 1.549342958240556e-03
6.836781523543792e-03 -2.730658289510556e-02 1.545206754977152e-03
5.679524557428962e-03 -2.350559673453333e-02 1.528410940343204e-03
1.310880205295602e-03 -8.585948298809650e-03 3.116721913483533e-03