<?xml version="1.0" ?> 
<!-- 
# vtk DataFile Version 3.0
-->
<VTKFile type="UnstructuredGrid" version="0.1" compressor="vtkZLibDataCompressor" byte_order="LittleEndian">
  <UnstructuredGrid>
    <FieldData>
      <DataArray type="Float64" Name="TIME" NumberOfTuples="1" format="ascii">
1.000000000000000e+00 
      </DataArray>
    </FieldData>

    <Piece NumberOfPoints="344" NumberOfCells="24" >
      <Points>
        <DataArray type="Float64" NumberOfComponents="3" format="ascii">
-2.000000000000000e+00 -2.000000000000000e+00 -4.000000000000000e+00
0.000000000000000e+00 -2.000000000000000e+00 -4.000000000000000e+00
0.000000000000000e+00 0.000000000000000e+00 -4.000000000000000e+00
-2.000000000000000e+00 0.000000000000000e+00 -4.000000000000000e+00
-2.000000000000000e+00 -2.000000000000000e+00 -2.000000000000000e+00
0.000000000000000e+00 -2.000000000000000e+00 -2.000000000000000e+00
0.000000000000000e+00 0.000000000000000e+00 -2.000000000000000e+00
-2.000000000000000e+00 0.000000000000000e+00 -2.000000000000000e+00
-1.000000000000000e+00 -2.000000000000000e+00 -4.000000000000000e+00
0.000000000000000e+00 -1.000000000000000e+00 -4.000000000000000e+00
-1.000000000000000e+00 0.000000000000000e+00 -4.000000000000000e+00
-2.000000000000000e+00 -1.000000000000000e+00 -4.000000000000000e+00
-1.000000000000000e+00 -2.000000000000000e+00 -2.000000000000000e+00
0.000000000000000e+00 -1.000000000000000e+00 -2.000000000000000e+00
-1.000000000000000e+00 0.000000000000000e+00 -2.000000000000000e+00
-2.000000000000000e+00 -1.000000000000000e+00 -2.000000000000000e+00
-2.000000000000000e+00 -2.000000000000000e+00 -3.000000000000000e+00
0.000000000000000e+00 -2.000000000000000e+00 -3.000000000000000e+00
0.000000000000000e+00 0.000000000000000e+00 -3.000000000000000e+00
-2.000000000000000e+00 0.000000000000000e+00 -3.000000000000000e+00
-2.000000000000000e+00 -1.000000000000000e+00 -3.000000000000000e+00
0.000000000000000e+00 -1.000000000000000e+00 -3.000000000000000e+00
-1.000000000000000e+00 -2.000000000000000e+00 -3.000000000000000e+00
-1.000000000000000e+00 0.000000000000000e+00 -3.000000000000000e+00
-1.000000000000000e+00 -1.000000000000000e+00 -4.000000000000000e+00
-1.000000000000000e+00 -1.000000000000000e+00 -2.000000000000000e+00
-1.000000000000000e+00 -1.000000000000000e+00 -3.000000000000000e+00
0.000000000000000e+00 -2.000000000000000e+00 -4.000000000000000e+00
2.000000000000000e+00 -2.000000000000000e+00 -4.000000000000000e+00
2.000000000000000e+00 0.000000000000000e+00 -4.000000000000000e+00
0.000000000000000e+00 0.000000000000000e+00 -4.000000000000000e+00
0.000000000000000e+00 -2.000000000000000e+00 -2.000000000000000e+00
2.000000000000000e+00 -2.000000000000000e+00 -2.000000000000000e+00
2.000000000000000e+00 0.000000000000000e+00 -2.000000000000000e+00
0.000000000000000e+00 0.000000000000000e+00 -2.000000000000000e+00
1.000000000000000e+00 -2.000000000000000e+00 -4.000000000000000e+00
2.000000000000000e+00 -1.000000000000000e+00 -4.000000000000000e+00
1.000000000000000e+00 0.000000000000000e+00 -4.000000000000000e+00
0.000000000000000e+00 -1.000000000000000e+00 -4.000000000000000e+00
1.000000000000000e+00 -2.000000000000000e+00 -2.000000000000000e+00
2.000000000000000e+00 -1.000000000000000e+00 -2.000000000000000e+00
1.000000000000000e+00 0.000000000000000e+00 -2.000000000000000e+00
0.000000000000000e+00 -1.000000000000000e+00 -2.000000000000000e+00
0.000000000000000e+00 -2.000000000000000e+00 -3.000000000000000e+00
2.000000000000000e+00 -2.000000000000000e+00 -3.000000000000000e+00
2.000000000000000e+00 0.000000000000000e+00 -3.000000000000000e+00
0.000000000000000e+00 0.000000000000000e+00 -3.000000000000000e+00
0.000000000000000e+00 -1.000000000000000e+00 -3.000000000000000e+00
2.000000000000000e+00 -1.000000000000000e+00 -3.000000000000000e+00
1.000000000000000e+00 -2.000000000000000e+00 -3.000000000000000e+00
1.000000000000000e+00 0.000000000000000e+00 -3.000000000000000e+00
1.000000000000000e+00 -1.000000000000000e+00 -4.000000000000000e+00
1.000000000000000e+00 -1.000000000000000e+00 -2.000000000000000e+00
1.000000000000000e+00 -1.000000000000000e+00 -3.000000000000000e+00
-2.000000000000000e+00 0.000000000000000e+00 -4.000000000000000e+00
0.000000000000000e+00 0.000000000000000e+00 -4.000000000000000e+00
0.000000000000000e+00 2.000000000000000e+00 -4.000000000000000e+00
-2.000000000000000e+00 2.000000000000000e+00 -4.000000000000000e+00
-2.000000000000000e+00 0.000000000000000e+00 -2.000000000000000e+00
0.000000000000000e+00 0.000000000000000e+00 -2.000000000000000e+00
0.000000000000000e+00 2.000000000000000e+00 -2.000000000000000e+00
-2.000000000000000e+00 2.000000000000000e+00 -2.000000000000000e+00
-1.000000000000000e+00 0.000000000000000e+00 -4.000000000000000e+00
0.000000000000000e+00 1.000000000000000e+00 -4.000000000000000e+00
-1.000000000000000e+00 2.000000000000000e+00 -4.000000000000000e+00
-2.000000000000000e+00 1.000000000000000e+00 -4.000000000000000e+00
-1.000000000000000e+00 0.000000000000000e+00 -2.000000000000000e+00
0.000000000000000e+00 1.000000000000000e+00 -2.000000000000000e+00
-1.000000000000000e+00 2.000000000000000e+00 -2.000000000000000e+00
-2.000000000000000e+00 1.000000000000000e+00 -2.000000000000000e+00
-2.000000000000000e+00 0.000000000000000e+00 -3.000000000000000e+00
0.000000000000000e+00 0.000000000000000e+00 -3.000000000000000e+00
0.000000000000000e+00 2.000000000000000e+00 -3.000000000000000e+00
-2.000000000000000e+00 2.000000000000000e+00 -3.000000000000000e+00
-2.000000000000000e+00 1.000000000000000e+00 -3.000000000000000e+00
0.000000000000000e+00 1.000000000000000e+00 -3.000000000000000e+00
-1.000000000000000e+00 0.000000000000000e+00 -3.000000000000000e+00
-1.000000000000000e+00 2.000000000000000e+00 -3.000000000000000e+00
-1.000000000000000e+00 1.000000000000000e+00 -4.000000000000000e+00
-1.000000000000000e+00 1.000000000000000e+00 -2.000000000000000e+00
-1.000000000000000e+00 1.000000000000000e+00 -3.000000000000000e+00
0.000000000000000e+00 0.000000000000000e+00 -4.000000000000000e+00
2.000000000000000e+00 0.000000000000000e+00 -4.000000000000000e+00
2.000000000000000e+00 2.000000000000000e+00 -4.000000000000000e+00
0.000000000000000e+00 2.000000000000000e+00 -4.000000000000000e+00
0.000000000000000e+00 0.000000000000000e+00 -2.000000000000000e+00
2.000000000000000e+00 0.000000000000000e+00 -2.000000000000000e+00
2.000000000000000e+00 2.000000000000000e+00 -2.000000000000000e+00
0.000000000000000e+00 2.000000000000000e+00 -2.000000000000000e+00
1.000000000000000e+00 0.000000000000000e+00 -4.000000000000000e+00
2.000000000000000e+00 1.000000000000000e+00 -4.000000000000000e+00
1.000000000000000e+00 2.000000000000000e+00 -4.000000000000000e+00
0.000000000000000e+00 1.000000000000000e+00 -4.000000000000000e+00
1.000000000000000e+00 0.000000000000000e+00 -2.000000000000000e+00
2.000000000000000e+00 1.000000000000000e+00 -2.000000000000000e+00
1.000000000000000e+00 2.000000000000000e+00 -2.000000000000000e+00
0.000000000000000e+00 1.000000000000000e+00 -2.000000000000000e+00
0.000000000000000e+00 0.000000000000000e+00 -3.000000000000000e+00
2.000000000000000e+00 0.000000000000000e+00 -3.000000000000000e+00
2.000000000000000e+00 2.000000000000000e+00 -3.000000000000000e+00
0.000000000000000e+00 2.000000000000000e+00 -3.000000000000000e+00
0.000000000000000e+00 1.000000000000000e+00 -3.000000000000000e+00
2.000000000000000e+00 1.000000000000000e+00 -3.000000000000000e+00
1.000000000000000e+00 0.000000000000000e+00 -3.000000000000000e+00
1.000000000000000e+00 2.000000000000000e+00 -3.000000000000000e+00
1.000000000000000e+00 1.000000000000000e+00 -4.000000000000000e+00
1.000000000000000e+00 1.000000000000000e+00 -2.000000000000000e+00
1.000000000000000e+00 1.000000000000000e+00 -3.000000000000000e+00
-2.000000000000000e+00 -2.000000000000000e+00 -2.000000000000000e+00
0.000000000000000e+00 -2.000000000000000e+00 -2.000000000000000e+00
0.000000000000000e+00 0.000000000000000e+00 -2.000000000000000e+00
-2.000000000000000e+00 0.000000000000000e+00 -2.000000000000000e+00
-2.000000000000000e+00 -2.000000000000000e+00 0.000000000000000e+00
0.000000000000000e+00 -2.000000000000000e+00 0.000000000000000e+00
0.000000000000000e+00 0.000000000000000e+00 0.000000000000000e+00
-2.000000000000000e+00 0.000000000000000e+00 0.000000000000000e+00
-1.000000000000000e+00 -2.000000000000000e+00 -2.000000000000000e+00
0.000000000000000e+00 -1.000000000000000e+00 -2.000000000000000e+00
-1.000000000000000e+00 0.000000000000000e+00 -2.000000000000000e+00
-2.000000000000000e+00 -1.000000000000000e+00 -2.000000000000000e+00
-1.000000000000000e+00 -2.000000000000000e+00 0.000000000000000e+00
0.000000000000000e+00 -1.000000000000000e+00 0.000000000000000e+00
-1.000000000000000e+00 0.000000000000000e+00 0.000000000000000e+00
-2.000000000000000e+00 -1.000000000000000e+00 0.000000000000000e+00
-2.000000000000000e+00 -2.000000000000000e+00 -1.000000000000000e+00
0.000000000000000e+00 -2.000000000000000e+00 -1.000000000000000e+00
0.000000000000000e+00 0.000000000000000e+00 -1.000000000000000e+00
-2.000000000000000e+00 0.000000000000000e+00 -1.000000000000000e+00
-2.000000000000000e+00 -1.000000000000000e+00 -1.000000000000000e+00
0.000000000000000e+00 -1.000000000000000e+00 -1.000000000000000e+00
-1.000000000000000e+00 -2.000000000000000e+00 -1.000000000000000e+00
-1.000000000000000e+00 0.000000000000000e+00 -1.000000000000000e+00
-1.000000000000000e+00 -1.000000000000000e+00 -2.000000000000000e+00
-1.000000000000000e+00 -1.000000000000000e+00 0.000000000000000e+00
-1.000000000000000e+00 -1.000000000000000e+00 -1.000000000000000e+00
0.000000000000000e+00 -2.000000000000000e+00 -2.000000000000000e+00
2.000000000000000e+00 -2.000000000000000e+00 -2.000000000000000e+00
2.000000000000000e+00 0.000000000000000e+00 -2.000000000000000e+00
0.000000000000000e+00 0.000000000000000e+00 -2.000000000000000e+00
0.000000000000000e+00 -2.000000000000000e+00 0.000000000000000e+00
[...]
  <PointData>
        <DataArray type="Float64" Name="displacement" NumberOfComponents="3" format="ascii">
0.000000000000000e+00 -1.037595465870561e-02 -6.521739727482785e-02
5.187977329352745e-03 -1.037595465870532e-02 -6.521739727482684e-02
5.187977329352616e-03 -5.187977329352662e-03 -6.521739727482706e-02
0.000000000000000e+00 -5.187977329352780e-03 -6.521739727482709e-02
0.000000000000000e+00 -1.037595465870461e-02 -8.260869863741371e-02
5.187977329352304e-03 -1.037595465870477e-02 -8.260869863741375e-02
5.187977329352328e-03 -5.187977329352464e-03 -8.260869863741437e-02
0.000000000000000e+00 -5.187977329352418e-03 -8.260869863741466e-02
2.593988664676381e-03 -1.037595465870541e-02 -6.521739727482713e-02
5.187977329352675e-03 -7.781965994028991e-03 -6.521739727482691e-02
2.593988664676306e-03 -5.187977329352715e-03 -6.521739727482723e-02
0.000000000000000e+00 -7.781965994029184e-03 -6.521739727482724e-02
2.593988664676060e-03 -1.037595465870476e-02 -8.260869863741384e-02
5.187977329352299e-03 -7.781965994028689e-03 -8.260869863741413e-02
2.593988664676121e-03 -5.187977329352483e-03 -8.260869863741445e-02
0.000000000000000e+00 -7.781965994028580e-03 -8.260869863741441e-02
0.000000000000000e+00 -1.037595465870472e-02 -7.391304795612044e-02
5.187977329352448e-03 -1.037595465870498e-02 -7.391304795612043e-02
5.187977329352436e-03 -5.187977329352543e-03 -7.391304795612062e-02
0.000000000000000e+00 -5.187977329352543e-03 -7.391304795612100e-02
0.000000000000000e+00 -7.781965994028859e-03 -7.391304795612082e-02
5.187977329352399e-03 -7.781965994028822e-03 -7.391304795612043e-02
2.593988664676110e-03 -1.037595465870500e-02 -7.391304795612051e-02
2.593988664676221e-03 -5.187977329352562e-03 -7.391304795612078e-02
2.593988664676337e-03 -7.781965994029068e-03 -6.521739727482706e-02
2.593988664676113e-03 -7.781965994028676e-03 -8.260869863741427e-02
2.593988664676177e-03 -7.781965994028838e-03 -7.391304795612061e-02
5.187977329352745e-03 -1.037595465870532e-02 -6.521739727482684e-02
1.037595465870540e-02 -1.037595465870525e-02 -6.521739727482634e-02
1.037595465870528e-02 -5.187977329352625e-03 -6.521739727482663e-02
5.187977329352616e-03 -5.187977329352662e-03 -6.521739727482706e-02
5.187977329352304e-03 -1.037595465870477e-02 -8.260869863741375e-02
1.037595465870446e-02 -1.037595465870463e-02 -8.260869863741302e-02
1.037595465870455e-02 -5.187977329352396e-03 -8.260869863741366e-02
5.187977329352328e-03 -5.187977329352464e-03 -8.260869863741437e-02
7.781965994029087e-03 -1.037595465870528e-02 -6.521739727482669e-02
1.037595465870536e-02 -7.781965994028939e-03 -6.521739727482641e-02
7.781965994028938e-03 -5.187977329352629e-03 -6.521739727482678e-02
5.187977329352675e-03 -7.781965994028991e-03 -6.521739727482691e-02
7.781965994028513e-03 -1.037595465870470e-02 -8.260869863741346e-02
1.037595465870459e-02 -7.781965994028659e-03 -8.260869863741349e-02
7.781965994028511e-03 -5.187977329352418e-03 -8.260869863741417e-02
5.187977329352299e-03 -7.781965994028689e-03 -8.260869863741413e-02
5.187977329352448e-03 -1.037595465870498e-02 -7.391304795612043e-02
1.037595465870459e-02 -1.037595465870521e-02 -7.391304795611972e-02
1.037595465870493e-02 -5.187977329352519e-03 -7.391304795612039e-02
5.187977329352436e-03 -5.187977329352543e-03 -7.391304795612062e-02
5.187977329352399e-03 -7.781965994028822e-03 -7.391304795612043e-02
1.037595465870493e-02 -7.781965994028912e-03 -7.391304795612025e-02
7.781965994028710e-03 -1.037595465870495e-02 -7.391304795612019e-02
7.781965994028663e-03 -5.187977329352520e-03 -7.391304795612053e-02
7.781965994029017e-03 -7.781965994028950e-03 -6.521739727482670e-02
7.781965994028481e-03 -7.781965994028669e-03 -8.260869863741391e-02
7.781965994028655e-03 -7.781965994028838e-03 -7.391304795612032e-02
0.000000000000000e+00 -5.187977329352780e-03 -6.521739727482709e-02
5.187977329352616e-03 -5.187977329352662e-03 -6.521739727482706e-02
5.187977329352519e-03 0.000000000000000e+00 -6.521739727482752e-02
0.000000000000000e+00 0.000000000000000e+00 -6.521739727482799e-02
0.000000000000000e+00 -5.187977329352418e-03 -8.260869863741466e-02
5.187977329352328e-03 -5.187977329352464e-03 -8.260869863741437e-02
5.187977329352325e-03 0.000000000000000e+00 -8.260869863741450e-02
0.000000000000000e+00 0.000000000000000e+00 -8.260869863741457e-02
2.593988664676306e-03 -5.187977329352715e-03 -6.521739727482723e-02
5.187977329352564e-03 -2.593988664676331e-03 -6.521739727482725e-02
2.593988664676260e-03 0.000000000000000e+00 -6.521739727482764e-02
0.000000000000000e+00 -2.593988664676390e-03 -6.521739727482738e-02
2.593988664676121e-03 -5.187977329352483e-03 -8.260869863741445e-02
5.187977329352352e-03 -2.593988664676198e-03 -8.260869863741449e-02
2.593988664676136e-03 0.000000000000000e+00 -8.260869863741462e-02
0.000000000000000e+00 -2.593988664676198e-03 -8.260869863741466e-02
0.000000000000000e+00 -5.187977329352543e-03 -7.391304795612100e-02
5.187977329352436e-03 -5.187977329352543e-03 -7.391304795612062e-02
5.187977329352371e-03 0.000000000000000e+00 -7.391304795612091e-02
0.000000000000000e+00 0.000000000000000e+00 -7.391304795612126e-02
0.000000000000000e+00 -2.593988664676137e-03 -7.391304795612112e-02
5.187977329352457e-03 -2.593988664676237e-03 -7.391304795612084e-02
2.593988664676221e-03 -5.187977329352562e-03 -7.391304795612078e-02
2.593988664676102e-03 0.000000000000000e+00 -7.391304795612105e-02
2.593988664676282e-03 -2.593988664676358e-03 -6.521739727482746e-02
2.593988664676116e-03 -2.593988664676237e-03 -8.260869863741450e-02
2.593988664676209e-03 -2.593988664676255e-03 -7.391304795612094e-02
5.187977329352616e-03 -5.187977329352662e-03 -6.521739727482706e-02
1.037595465870528e-02 -5.187977329352625e-03 -6.521739727482663e-02
1.037595465870495e-02 0.000000000000000e+00 -6.521739727482671e-02
5.187977329352519e-03 0.000000000000000e+00 -6.521739727482752e-02
5.187977329352328e-03 -5.187977329352464e-03 -8.260869863741437e-02
1.037595465870455e-02 -5.187977329352396e-03 -8.260869863741366e-02
1.037595465870474e-02 0.000000000000000e+00 -8.260869863741425e-02
5.187977329352325e-03 0.000000000000000e+00 -8.260869863741450e-02
7.781965994028938e-03 -5.187977329352629e-03 -6.521739727482678e-02
1.037595465870515e-02 -2.593988664676310e-03 -6.521739727482681e-02
7.781965994028755e-03 0.000000000000000e+00 -6.521739727482731e-02
5.187977329352564e-03 -2.593988664676331e-03 -6.521739727482725e-02
7.781965994028511e-03 -5.187977329352418e-03 -8.260869863741417e-02
1.037595465870454e-02 -2.593988664676093e-03 -8.260869863741382e-02
7.781965994028535e-03 0.000000000000000e+00 -8.260869863741437e-02
5.187977329352352e-03 -2.593988664676198e-03 -8.260869863741449e-02
5.187977329352436e-03 -5.187977329352543e-03 -7.391304795612062e-02
1.037595465870493e-02 -5.187977329352519e-03 -7.391304795612039e-02
1.037595465870484e-02 0.000000000000000e+00 -7.391304795612101e-02
5.187977329352371e-03 0.000000000000000e+00 -7.391304795612091e-02
5.187977329352457e-03 -2.593988664676237e-03 -7.391304795612084e-02
1.037595465870483e-02 -2.593988664676171e-03 -7.391304795612053e-02
7.781965994028663e-03 -5.187977329352520e-03 -7.391304795612053e-02
7.781965994028664e-03 0.000000000000000e+00 -7.391304795612087e-02
7.781965994028851e-03 -2.593988664676314e-03 -6.521739727482696e-02
7.781965994028545e-03 -2.593988664676133e-03 -8.260869863741434e-02
7.781965994028686e-03 -2.593988664676178e-03 -7.391304795612073e-02
0.000000000000000e+00 -1.037595465870461e-02 -8.260869863741371e-02
5.187977329352304e-03 -1.037595465870477e-02 -8.260869863741375e-02
5.187977329352328e-03 -5.187977329352464e-03 -8.260869863741437e-02
0.000000000000000e+00 -5.187977329352418e-03 -8.260869863741466e-02
0.000000000000000e+00 -1.037595465870335e-02 -1.000000000000000e-01
5.187977329351515e-03 -1.037595465870345e-02 -1.000000000000000e-01
5.187977329351279e-03 -5.187977329351273e-03 -1.000000000000000e-01
0.000000000000000e+00 -5.187977329351202e-03 -1.000000000000000e-01
2.593988664676060e-03 -1.037595465870476e-02 -8.260869863741384e-02
5.187977329352299e-03 -7.781965994028689e-03 -8.260869863741413e-02
2.593988664676121e-03 -5.187977329352483e-03 -8.260869863741445e-02
0.000000000000000e+00 -7.781965994028580e-03 -8.260869863741441e-02
2.593988664675717e-03 -1.037595465870330e-02 -9.999999999999999e-02
5.187977329351488e-03 -7.781965994027203e-03 -1.000000000000000e-01
2.593988664675677e-03 -5.187977329351222e-03 -1.000000000000000e-01
0.000000000000000e+00 -7.781965994027047e-03 -9.999999999999999e-02
0.000000000000000e+00 -1.037595465870443e-02 -9.130434931870707e-02
5.187977329352074e-03 -1.037595465870437e-02 -9.130434931870690e-02
5.187977329352031e-03 -5.187977329352136e-03 -9.130434931870771e-02
0.000000000000000e+00 -5.187977329352078e-03 -9.130434931870776e-02
0.000000000000000e+00 -7.781965994028069e-03 -9.130434931870761e-02
5.187977329352088e-03 -7.781965994028263e-03 -9.130434931870748e-02
2.593988664676003e-03 -1.037595465870432e-02 -9.130434931870704e-02
2.593988664675956e-03 -5.187977329352144e-03 -9.130434931870771e-02
2.593988664676113e-03 -7.781965994028676e-03 -8.260869863741427e-02
2.593988664675760e-03 -7.781965994027123e-03 -9.999999999999999e-02
2.593988664676018e-03 -7.781965994028224e-03 -9.130434931870759e-02
5.187977329352304e-03 -1.037595465870477e-02 -8.260869863741375e-02
1.037595465870446e-02 -1.037595465870463e-02 -8.260869863741302e-02
1.037595465870455e-02 -5.187977329352396e-03 -8.260869863741366e-02
5.187977329352328e-03 -5.187977329352464e-03 -8.260869863741437e-02
5.187977329351515e-03 -1.037595465870345e-02 -1.000000000000000e-01
1.037595465870381e-02 -1.037595465870417e-02 -1.000000000000000e-01
1.037595465870339e-02 -5.187977329351657e-03 -1.000000000000000e-01
5.187977329351279e-03 -5.187977329351273e-03 -1.000000000000000e-01
7.781965994028513e-03 -1.037595465870470e-02 -8.260869863741346e-02
1.037595465870459e-02 -7.781965994028659e-03 -8.260869863741349e-02
7.781965994028511e-03 -5.187977329352418e-03 -8.260869863741417e-02
5.187977329352299e-03 -7.781965994028689e-03 -8.260869863741413e-02
7.781965994027509e-03 -1.037595465870376e-02 -1.000000000000000e-01
1.037595465870354e-02 -7.781965994027687e-03 -9.999999999999999e-02
7.781965994027090e-03 -5.187977329351403e-03 -9.999999999999999e-02
5.187977329351488e-03 -7.781965994027203e-03 -1.000000000000000e-01
5.187977329352074e-03 -1.037595465870437e-02 -9.130434931870690e-02
1.037595465870441e-02 -1.037595465870409e-02 -9.130434931870637e-02
1.037595465870406e-02 -5.187977329352145e-03 -9.130434931870676e-02
5.187977329352031e-03 -5.187977329352136e-03 -9.130434931870771e-02
5.187977329352088e-03 -7.781965994028263e-03 -9.130434931870748e-02
1.037595465870418e-02 -7.781965994028235e-03 -9.130434931870661e-02
7.781965994028209e-03 -1.037595465870436e-02 -9.130434931870671e-02
7.781965994028107e-03 -5.187977329352114e-03 -9.130434931870744e-02
7.781965994028481e-03 -7.781965994028669e-03 -8.260869863741391e-02
7.781965994027356e-03 -7.781965994027365e-03 -9.999999999999999e-02
7.781965994028159e-03 -7.781965994028243e-03 -9.130434931870719e-02
0.000000000000000e+00 -5.187977329352418e-03 -8.260869863741466e-02
5.187977329352328e-03 -5.187977329352464e-03 -8.260869863741437e-02
5.187977329352325e-03 0.000000000000000e+00 -8.260869863741450e-02
0.000000000000000e+00 0.000000000000000e+00 -8.260869863741457e-02
0.000000000000000e+00 -5.187977329351202e-03 -1.000000000000000e-01
5.187977329351279e-03 -5.187977329351273e-03 -1.000000000000000e-01
5.187977329351107e-03 0.000000000000000e+00 -1.000000000000000e-01
0.000000000000000e+00 0.000000000000000e+00 -1.000000000000000e-01
2.593988664676121e-03 -5.187977329352483e-03 -8.260869863741445e-02
5.187977329352352e-03 -2.593988664676198e-03 -8.260869863741449e-02
2.593988664676136e-03 0.000000000000000e+00 -8.260869863741462e-02
0.000000000000000e+00 -2.593988664676198e-03 -8.260869863741466e-02
2.593988664675677e-03 -5.187977329351222e-03 -1.000000000000000e-01
5.187977329351086e-03 -2.593988664675570e-03 -9.999999999999999e-02
2.593988664675544e-03 0.000000000000000e+00 -9.999999999999999e-02
0.000000000000000e+00 -2.593988664675593e-03 -1.000000000000000e-01
0.000000000000000e+00 -5.187977329352078e-03 -9.130434931870776e-02
5.187977329352031e-03 -5.187977329352136e-03 -9.130434931870771e-02
5.187977329352021e-03 0.000000000000000e+00 -9.130434931870772e-02
0.000000000000000e+00 0.000000000000000e+00 -9.130434931870759e-02
0.000000000000000e+00 -2.593988664676156e-03 -9.130434931870772e-02
5.187977329351982e-03 -2.593988664676034e-03 -9.130434931870769e-02
2.593988664675956e-03 -5.187977329352144e-03 -9.130434931870771e-02
2.593988664676054e-03 0.000000000000000e+00 -9.130434931870779e-02
2.593988664676116e-03 -2.593988664676237e-03 -8.260869863741450e-02
2.593988664675571e-03 -2.593988664675533e-03 -1.000000000000000e-01
2.593988664675930e-03 -2.593988664676073e-03 -9.130434931870769e-02
5.187977329352328e-03 -5.187977329352464e-03 -8.260869863741437e-02
1.037595465870455e-02 -5.187977329352396e-03 -8.260869863741366e-02
1.037595465870474e-02 0.000000000000000e+00 -8.260869863741425e-02
5.187977329352325e-03 0.000000000000000e+00 -8.260869863741450e-02
5.187977329351279e-03 -5.187977329351273e-03 -1.000000000000000e-01
1.037595465870339e-02 -5.187977329351657e-03 -1.000000000000000e-01
1.037595465870302e-02 0.000000000000000e+00 -1.000000000000000e-01
5.187977329351107e-03 0.000000000000000e+00 -1.000000000000000e-01
7.781965994028511e-03 -5.187977329352418e-03 -8.260869863741417e-02
1.037595465870454e-02 -2.593988664676093e-03 -8.260869863741382e-02
7.781965994028535e-03 0.000000000000000e+00 -8.260869863741437e-02
5.187977329352352e-03 -2.593988664676198e-03 -8.260869863741449e-02
7.781965994027090e-03 -5.187977329351403e-03 -9.999999999999999e-02
1.037595465870326e-02 -2.593988664675841e-03 -1.000000000000000e-01
7.781965994026871e-03 0.000000000000000e+00 -1.000000000000000e-01
5.187977329351086e-03 -2.593988664675570e-03 -9.999999999999999e-02
5.187977329352031e-03 -5.187977329352136e-03 -9.130434931870771e-02
1.037595465870406e-02 -5.187977329352145e-03 -9.130434931870676e-02
1.037595465870426e-02 0.000000000000000e+00 -9.130434931870707e-02
5.187977329352021e-03 0.000000000000000e+00 -9.130434931870772e-02
5.187977329351982e-03 -2.593988664676034e-03 -9.130434931870769e-02
1.037595465870408e-02 -2.593988664676007e-03 -9.130434931870691e-02
7.781965994028107e-03 -5.187977329352114e-03 -9.130434931870744e-02
7.781965994028044e-03 0.000000000000000e+00 -9.130434931870750e-02
7.781965994028545e-03 -2.593988664676133e-03 -8.260869863741434e-02
7.781965994026872e-03 -2.593988664675681e-03 -1.000000000000000e-01
7.781965994028063e-03 -2.593988664676019e-03 -9.130434931870751e-02
0.000000000000000e+00 -1.037595465870540e-02 -6.956520545035907e-02
0.000000000000000e+00 -1.037595465870600e-02 -5.217390408776877e-02
0.000000000000000e+00 -5.187977329353151e-03 -5.217390408776936e-02
0.000000000000000e+00 -5.187977329352660e-03 -6.956520545035860e-02
5.187977329352673e-03 -1.037595465870513e-02 -6.956520545035837e-02
5.187977329352969e-03 -1.037595465870582e-02 -5.217390408776885e-02
5.187977329352843e-03 -5.187977329353076e-03 -5.217390408776897e-02
5.187977329352526e-03 -5.187977329352507e-03 -6.956520545035857e-02
0.000000000000000e+00 -1.037595465870600e-02 -5.217390408776877e-02
0.000000000000000e+00 -1.037595465870620e-02 -3.478260272517836e-02
0.000000000000000e+00 -5.187977329353171e-03 -3.478260272518013e-02
0.000000000000000e+00 -5.187977329353151e-03 -5.217390408776936e-02
5.187977329352969e-03 -1.037595465870582e-02 -5.217390408776885e-02
5.187977329352875e-03 -1.037595465870622e-02 -3.478260272517986e-02
5.187977329353176e-03 -5.187977329353131e-03 -3.478260272517858e-02
5.187977329352843e-03 -5.187977329353076e-03 -5.217390408776897e-02
0.000000000000000e+00 -1.037595465870620e-02 -3.478260272517836e-02
0.000000000000000e+00 -1.037595465870618e-02 -1.739130136258982e-02
0.000000000000000e+00 -5.187977329352891e-03 -1.739130136258979e-02
0.000000000000000e+00 -5.187977329353171e-03 -3.478260272518013e-02
5.187977329352875e-03 -1.037595465870622e-02 -3.478260272517986e-02
5.187977329353367e-03 -1.037595465870602e-02 -1.739130136259053e-02
5.187977329353258e-03 -5.187977329353013e-03 -1.739130136259124e-02
5.187977329353176e-03 -5.187977329353131e-03 -3.478260272517858e-02
0.000000000000000e+00 -1.037595465870618e-02 -1.739130136258982e-02
0.000000000000000e+00 -1.037595465870668e-02 0.000000000000000e+00
0.000000000000000e+00 -5.187977329353541e-03 0.000000000000000e+00
0.000000000000000e+00 -5.187977329352891e-03 -1.739130136258979e-02
5.187977329353367e-03 -1.037595465870602e-02 -1.739130136259053e-02
5.187977329352448e-03 -1.037595465870696e-02 0.000000000000000e+00
5.187977329352754e-03 -5.187977329353497e-03 0.000000000000000e+00
5.187977329353258e-03 -5.187977329353013e-03 -1.739130136259124e-02
0.000000000000000e+00 -5.187977329352660e-03 -6.956520545035860e-02
0.000000000000000e+00 -5.187977329353151e-03 -5.217390408776936e-02
0.000000000000000e+00 0.000000000000000e+00 -5.217390408777006e-02
0.000000000000000e+00 0.000000000000000e+00 -6.956520545035938e-02
5.187977329352526e-03 -5.187977329352507e-03 -6.956520545035857e-02
5.187977329352843e-03 -5.187977329353076e-03 -5.217390408776897e-02
5.187977329352869e-03 0.000000000000000e+00 -5.217390408776918e-02
5.187977329352404e-03 0.000000000000000e+00 -6.956520545035917e-02
0.000000000000000e+00 -5.187977329353151e-03 -5.217390408776936e-02
0.000000000000000e+00 -5.187977329353171e-03 -3.478260272518013e-02
0.000000000000000e+00 0.000000000000000e+00 -3.478260272517917e-02
0.000000000000000e+00 0.000000000000000e+00 -5.217390408777006e-02
5.187977329352843e-03 -5.187977329353076e-03 -5.217390408776897e-02
5.187977329353176e-03 -5.187977329353131e-03 -3.478260272517858e-02
5.187977329353432e-03 0.000000000000000e+00 -3.478260272518048e-02
5.187977329352869e-03 0.000000000000000e+00 -5.217390408776918e-02
0.000000000000000e+00 -5.187977329353171e-03 -3.478260272518013e-02
0.000000000000000e+00 -5.187977329352891e-03 -1.739130136258979e-02
0.000000000000000e+00 0.000000000000000e+00 -1.739130136259051e-02
0.000000000000000e+00 0.000000000000000e+00 -3.478260272517917e-02
5.187977329353176e-03 -5.187977329353131e-03 -3.478260272517858e-02
5.187977329353258e-03 -5.187977329353013e-03 -1.739130136259124e-02
5.187977329353330e-03 0.000000000000000e+00 -1.739130136259089e-02
5.187977329353432e-03 0.000000000000000e+00 -3.478260272518048e-02
0.000000000000000e+00 -5.187977329352891e-03 -1.739130136258979e-02
0.000000000000000e+00 -5.187977329353541e-03 0.000000000000000e+00
0.000000000000000e+00 0.000000000000000e+00 0.000000000000000e+00
0.000000000000000e+00 0.000000000000000e+00 -1.739130136259051e-02
5.187977329353258e-03 -5.187977329353013e-03 -1.739130136259124e-02
5.187977329352754e-03 -5.187977329353497e-03 0.000000000000000e+00
5.187977329352742e-03 0.000000000000000e+00 0.000000000000000e+00
5.187977329353330e-03 0.000000000000000e+00 -1.739130136259089e-02
5.187977329352673e-03 -1.037595465870513e-02 -6.956520545035837e-02
5.187977329352969e-03 -1.037595465870582e-02 -5.217390408776885e-02
5.187977329352843e-03 -5.187977329353076e-03 -5.217390408776897e-02
5.187977329352526e-03 -5.187977329352507e-03 -6.956520545035857e-02
1.037595465870528e-02 -1.037595465870501e-02 -6.956520545035776e-02
1.037595465870582e-02 -1.037595465870597e-02 -5.217390408776868e-02
1.037595465870599e-02 -5.187977329352758e-03 -5.217390408776860e-02
1.037595465870505e-02 -5.187977329352562e-03 -6.956520545035803e-02
5.187977329352969e-03 -1.037595465870582e-02 -5.217390408776885e-02
5.187977329352875e-03 -1.037595465870622e-02 -3.478260272517986e-02
5.187977329353176e-03 -5.187977329353131e-03 -3.478260272517858e-02
5.187977329352843e-03 -5.187977329353076e-03 -5.217390408776897e-02
1.037595465870582e-02 -1.037595465870597e-02 -5.217390408776868e-02