<?xml version="1.0" ?> 
<!-- 
# vtk DataFile Version 3.0
-->
<VTKFile type="UnstructuredGrid" version="0.1" compressor="vtkZLibDataCompressor" byte_order="LittleEndian">
  <UnstructuredGrid>
    <FieldData>
      <DataArray type="Float64" Name="TIME" NumberOfTuples="1" format="ascii">
2.000000000000000e+00 
      </DataArray>
    </FieldData>

    <Piece NumberOfPoints="8" NumberOfCells="2" >
      <Points>
        <DataArray type="Float64" NumberOfComponents="3" format="ascii">
5.000000000000000e-01 5.000000000000001e-01 0.000000000000000e+00
1.000000000000000e+00 5.000000000000000e-01 0.000000000000000e+00
1.000000000000000e+00 1.000000000000000e+00 0.000000000000000e+00
5.000000000000000e-01 1.000000000000000e+00 0.000000000000000e+00
5.000000000000000e-01 0.000000000000000e+00 0.000000000000000e+00
1.000000000000000e+00 0.000000000000000e+00 0.000000000000000e+00
1.000000000000000e+00 5.000000000000000e-01 0.000000000000000e+00
5.000000000000000e-01 5.000000000000001e-01 0.000000000000000e+00
        </DataArray>
      </Points>

      <Cells>
        <DataArray type="Int32" Name="connectivity" format="ascii">
0 1 2 3 4 5 6 7 
        </DataArray>
        <DataArray type="Int32" Name="offsets" format="ascii">
4 8 
        </DataArray>
        <DataArray type="UInt8" Name="types" format="ascii">
9 9 
        </DataArray>
      </Cells>

  <PointData>
        <DataArray type="Float64" Name="displacement" NumberOfComponents="2" format="ascii">
4.642353397705828e-02 3.489799392985639e-18
9.877585588420408e-02 4.510726182195378e-17
9.908857403206517e-02 -1.642830752551492e-02
4.969874249912661e-02 -1.633050612811400e-02
4.969874249912666e-02 1.633050612811404e-02
9.908857403206518e-02 1.642830752551494e-02
9.877585588420408e-02 4.510726182195378e-17
4.642353397705828e-02 3.489799392985639e-18
        </DataArray>
        <DataArray type="Float64" Name="nodal_GL_strains_xyz" NumberOfComponents="6" format="ascii">
1.036240662775935e-01 -3.215388713630025e-02 0.000000000000000e+00 -3.794707603699266e-18 0.000000000000000e+00 0.000000000000000e+00
1.101832463943202e-01 -3.231956952755435e-02 0.000000000000000e+00 3.629366772395226e-17 0.000000000000000e+00 0.000000000000000e+00
1.036554644756975e-01 -3.231956952755442e-02 0.000000000000000e+00 2.490203666063429e-04 0.000000000000000e+00 0.000000000000000e+00
1.042168897698264e-01 -3.215388713630023e-02 0.000000000000000e+00 -4.346126921859746e-03 0.000000000000000e+00 0.000000000000000e+00
1.042168897698264e-01 -3.215388713630025e-02 0.000000000000000e+00 4.346126921859707e-03 0.000000000000000e+00 0.000000000000000e+00
1.036554644756975e-01 -3.231956952755427e-02 0.000000000000000e+00 -2.490203666063557e-04 0.000000000000000e+00 0.000000000000000e+00
1.101832463943202e-01 -3.231956952755435e-02 0.000000000000000e+00 3.629366772395226e-17 0.000000000000000e+00 0.000000000000000e+00
1.036240662775935e-01 -3.215388713630025e-02 0.000000000000000e+00 -3.794707603699266e-18 0.000000000000000e+00 0.000000000000000e+00
        </DataArray>
        <DataArray type="Float64" Name="nodal_cauchy_stresses_xyz" NumberOfComponents="6" format="ascii">
1.003284485505610e+00 -1.867165395574309e-02 2.231343889116596e-01 1.474514954580286e-17 0.000000000000000e+00 0.000000000000000e+00
1.064792874627347e+00 -2.234432092797990e-03 2.397456871169888e-01 3.102986617653514e-16 0.000000000000000e+00 0.000000000000000e+00
1.002395120570744e+00 -2.124339277395114e-02 2.220413903980603e-01 1.467840566311369e-03 0.000000000000000e+00 0.000000000000000e+00
1.007135114192235e+00 -1.510960684713870e-02 2.245950129015006e-01 -4.407101824518848e-02 0.000000000000000e+00 0.000000000000000e+00
1.007135114192235e+00 -1.510960684713873e-02 2.245950129015007e-01 4.407101824518823e-02 0.000000000000000e+00 0.000000000000000e+00
1.002395120570743e+00 -2.124339277395047e-02 2.220413903980600e-01 -1.467840566311474e-03 0.000000000000000e+00 0.000000000000000e+00
1.064792874627347e+00 -2.234432092797990e-03 2.397456871169888e-01 3.102986617653514e-16 0.000000000000000e+00 0.000000000000000e+00
1.003284485505610e+00 -1.867165395574309e-02 2.231343889116596e-01 1.474514954580286e-17 0.000000000000000e+00 0.000000000000000e+00
        </DataArray>
  </PointData>
  <CellData>
        <DataArray type="Float64" Name="element_GL_strains_xyz" NumberOfComponents="6" format="ascii">
1.069193554350089e-01 -3.221434278968291e-02 0.000000000000000e+00 1.929186258032402e-03 0.000000000000000e+00 0.000000000000000e+00
1.069193554350089e-01 -3.221434278968285e-02 0.000000000000000e+00 -1.929186258032398e-03 0.000000000000000e+00 0.000000000000000e+00
        </DataArray>
        <DataArray type="Float64" Name="element_cauchy_stresses_xyz" NumberOfComponents="6" format="ascii">
1.033926089028593e+00 -1.067055118684202e-02 2.312272152953893e-01 1.262194645425682e-02 0.000000000000000e+00 0.000000000000000e+00
1.033926089028593e+00 -1.067055118684144e-02 2.312272152953894e-01 -1.262194645425673e-02 0.000000000000000e+00 0.000000000000000e+00
        </DataArray>
      </CellData>

    </Piece>
  </UnstructuredGrid>
</VTKFile>
