<?xml version="1.0" ?> 
<!-- 
# vtk DataFile Version 3.0
-->
<VTKFile type="UnstructuredGrid" version="0.1" compressor="vtkZLibDataCompressor" byte_order="LittleEndian">
  <UnstructuredGrid>
    <FieldData>
      <DataArray type="Float64" Name="TIME" NumberOfTuples="1" format="ascii">
1.000000000000000e+00 
      </DataArray>
    </FieldData>

    <Piece NumberOfPoints="8" NumberOfCells="2" >
      <Points>
        <DataArray type="Float64" NumberOfComponents="3" format="ascii">
0.000000000000000e+00 5.000000000000000e-01 0.000000000000000e+00
5.000000000000000e-01 5.000000000000001e-01 0.000000000000000e+00
5.000000000000000e-01 1.000000000000000e+00 0.000000000000000e+00
0.000000000000000e+00 1.000000000000000e+00 0.000000000000000e+00
0.000000000000000e+00 0.000000000000000e+00 0.000000000000000e+00
5.000000000000000e-01 0.000000000000000e+00 0.000000000000000e+00
5.000000000000000e-01 5.000000000000001e-01 0.000000000000000e+00
0.000000000000000e+00 5.000000000000000e-01 0.000000000000000e+00
        </DataArray>
      </Points>

      <Cells>
        <DataArray type="Int32" Name="connectivity" format="ascii">
0 1 2 3 4 5 6 7 
        </DataArray>
        <DataArray type="Int32" Name="offsets" format="ascii">
4 8 
        </DataArray>
        <DataArray type="UInt8" Name="types" format="ascii">
9 9 
        </DataArray>
      </Cells>

  <PointData>
        <DataArray type="Float64" Name="displacement" NumberOfComponents="2" format="ascii">
0.000000000000000e+00 0.000000000000000e+00
2.222365009953882e-02 -5.412018844255061e-18
2.393664525958611e-02 -8.100929007545036e-03
0.000000000000000e+00 0.000000000000000e+00
0.000000000000000e+00 0.000000000000000e+00
2.393664525958607e-02 8.100929007545015e-03
2.222365009953882e-02 -5.412018844255061e-18
0.000000000000000e+00 0.000000000000000e+00
        </DataArray>
        <DataArray type="Float64" Name="nodal_GL_strains_xyz" NumberOfComponents="6" format="ascii">
4.541222831217012e-02 -2.285313440123144e-05 0.000000000000000e+00 -6.071532165918825e-18 0.000000000000000e+00 0.000000000000000e+00
4.854714552846116e-02 -1.607652850738017e-02 0.000000000000000e+00 -7.372574772901430e-18 0.000000000000000e+00 0.000000000000000e+00
4.886243540196036e-02 -1.607652850738018e-02 0.000000000000000e+00 -2.248724253513628e-03 0.000000000000000e+00 0.000000000000000e+00
4.912761345890819e-02 -2.285313440123209e-05 0.000000000000000e+00 -8.100929007545037e-03 0.000000000000000e+00 0.000000000000000e+00
4.912761345890784e-02 -2.285313440123079e-05 0.000000000000000e+00 8.100929007545016e-03 0.000000000000000e+00 0.000000000000000e+00
4.886243540196031e-02 -1.607652850738016e-02 0.000000000000000e+00 2.248724253513658e-03 0.000000000000000e+00 0.000000000000000e+00
4.854714552846116e-02 -1.607652850738017e-02 0.000000000000000e+00 -7.372574772901430e-18 0.000000000000000e+00 0.000000000000000e+00
4.541222831217012e-02 -2.285313440123144e-05 0.000000000000000e+00 -6.071532165918825e-18 0.000000000000000e+00 0.000000000000000e+00
        </DataArray>
        <DataArray type="Float64" Name="nodal_cauchy_stresses_xyz" NumberOfComponents="6" format="ascii">
5.113097674525502e-01 1.633168816341304e-01 1.633135758878487e-01 -4.683753385137379e-17 0.000000000000000e+00 0.000000000000000e+00
4.918173958496105e-01 -9.906140842846106e-03 1.148575976532960e-01 -8.500145032286355e-17 0.000000000000000e+00 0.000000000000000e+00
4.947249801500296e-01 -8.361712772902829e-03 1.158599762035198e-01 -2.033824523345489e-02 0.000000000000000e+00 0.000000000000000e+00
5.489456235208201e-01 1.757293460147291e-01 1.747251840662176e-01 -6.480444851054445e-02 0.000000000000000e+00 0.000000000000000e+00
5.489456235208158e-01 1.757293460147282e-01 1.747251840662163e-01 6.480444851054427e-02 0.000000000000000e+00 0.000000000000000e+00
4.947249801500290e-01 -8.361712772903391e-03 1.158599762035197e-01 2.033824523345511e-02 0.000000000000000e+00 0.000000000000000e+00
4.918173958496105e-01 -9.906140842846106e-03 1.148575976532960e-01 -8.500145032286355e-17 0.000000000000000e+00 0.000000000000000e+00
5.113097674525502e-01 1.633168816341304e-01 1.633135758878487e-01 -4.683753385137379e-17 0.000000000000000e+00 0.000000000000000e+00
        </DataArray>
  </PointData>
  <CellData>
        <DataArray type="Float64" Name="element_GL_strains_xyz" NumberOfComponents="6" format="ascii">
4.726992088553911e-02 -8.055222738742623e-03 0.000000000000000e+00 -3.121618217087969e-03 0.000000000000000e+00 0.000000000000000e+00
4.726992088553894e-02 -8.055222738742623e-03 0.000000000000000e+00 3.121618217087972e-03 0.000000000000000e+00 0.000000000000000e+00
        </DataArray>
        <DataArray type="Float64" Name="element_cauchy_stresses_xyz" NumberOfComponents="6" format="ascii">
5.039708464368846e-01 7.792274026907256e-02 1.398712400141840e-01 -2.611896552265871e-02 0.000000000000000e+00 0.000000000000000e+00
5.039708464368826e-01 7.792274026907171e-02 1.398712400141834e-01 2.611896552265872e-02 0.000000000000000e+00 0.000000000000000e+00
        </DataArray>
      </CellData>

    </Piece>
  </UnstructuredGrid>
</VTKFile>
