<?xml version="1.0" ?> 
<!-- 
# vtk DataFile Version 3.0
-->
<VTKFile type="UnstructuredGrid" version="0.1" compressor="vtkZLibDataCompressor" byte_order="LittleEndian">
  <UnstructuredGrid>
    <FieldData>
      <DataArray type="Float64" Name="TIME" NumberOfTuples="1" format="ascii">
1.000000000000000e+00 
      </DataArray>
    </FieldData>

    <Piece NumberOfPoints="8" NumberOfCells="2" >
      <Points>
        <DataArray type="Float64" NumberOfComponents="3" format="ascii">
5.000000000000000e-01 5.000000000000001e-01 0.000000000000000e+00
1.000000000000000e+00 5.000000000000000e-01 0.000000000000000e+00
1.000000000000000e+00 1.000000000000000e+00 0.000000000000000e+00
5.000000000000000e-01 1.000000000000000e+00 0.000000000000000e+00
5.000000000000000e-01 0.000000000000000e+00 0.000000000000000e+00
1.000000000000000e+00 0.000000000000000e+00 0.000000000000000e+00
1.000000000000000e+00 5.000000000000000e-01 0.000000000000000e+00
5.000000000000000e-01 5.000000000000001e-01 0.000000000000000e+00
        </DataArray>
      </Points>

      <Cells>
        <DataArray type="Int32" Name="connectivity" format="ascii">
0 1 2 3 4 5 6 7 
        </DataArray>
        <DataArray type="Int32" Name="offsets" format="ascii">
4 8 
        </DataArray>
        <DataArray type="UInt8" Name="types" format="ascii">
9 9 
        </DataArray>
      </Cells>

  <PointData>
        <DataArray type="Float64" Name="displacement" NumberOfComponents="2" format="ascii">
2.222365009953882e-02 -5.412018844255061e-18
4.742969928773406e-02 -5.199609027416940e-17
4.767224385868607e-02 -8.219941803105082e-03
2.393664525958611e-02 -8.100929007545036e-03
2.393664525958607e-02 8.100929007545015e-03
4.767224385868601e-02 8.219941803105068e-03
4.742969928773406e-02 -5.199609027416940e-17
2.222365009953882e-02 -5.412018844255061e-18
        </DataArray>
        <DataArray type="Float64" Name="nodal_GL_strains_xyz" NumberOfComponents="6" format="ascii">
4.854714552846116e-02 -1.607652850738017e-02 0.000000000000000e+00 -7.372574772901430e-18 0.000000000000000e+00 0.000000000000000e+00
5.168206274475223e-02 -1.630535652697293e-02 0.000000000000000e+00 -2.228035464457712e-17 0.000000000000000e+00 0.000000000000000e+00
4.859725734501264e-02 -1.630535652697285e-02 0.000000000000000e+00 1.370022130556251e-04 0.000000000000000e+00 0.000000000000000e+00
4.886243540196036e-02 -1.607652850738018e-02 0.000000000000000e+00 -2.248724253513628e-03 0.000000000000000e+00 0.000000000000000e+00
4.886243540196031e-02 -1.607652850738016e-02 0.000000000000000e+00 2.248724253513658e-03 0.000000000000000e+00 0.000000000000000e+00
4.859725734501263e-02 -1.630535652697301e-02 0.000000000000000e+00 -1.370022130555668e-04 0.000000000000000e+00 0.000000000000000e+00
5.168206274475223e-02 -1.630535652697293e-02 0.000000000000000e+00 -2.228035464457712e-17 0.000000000000000e+00 0.000000000000000e+00
4.854714552846116e-02 -1.607652850738017e-02 0.000000000000000e+00 -7.372574772901430e-18 0.000000000000000e+00 0.000000000000000e+00
        </DataArray>
        <DataArray type="Float64" Name="nodal_cauchy_stresses_xyz" NumberOfComponents="6" format="ascii">
4.918173958496105e-01 -9.906140842846106e-03 1.148575976532960e-01 -8.500145032286355e-17 0.000000000000000e+00 0.000000000000000e+00
5.244127280992105e-01 -2.039371833633110e-03 1.242139749438696e-01 -2.105520618966850e-16 0.000000000000000e+00 0.000000000000000e+00
4.913803967102468e-01 -1.259546550042530e-02 1.140121183375839e-01 8.844022673631033e-04 0.000000000000000e+00 0.000000000000000e+00
4.947249801500296e-01 -8.361712772902829e-03 1.158599762035198e-01 -2.033824523345489e-02 0.000000000000000e+00 0.000000000000000e+00
4.947249801500290e-01 -8.361712772903391e-03 1.158599762035197e-01 2.033824523345511e-02 0.000000000000000e+00 0.000000000000000e+00
4.913803967102459e-01 -1.259546550042810e-02 1.140121183375832e-01 -8.844022673626679e-04 0.000000000000000e+00 0.000000000000000e+00
5.244127280992105e-01 -2.039371833633110e-03 1.242139749438696e-01 -2.105520618966850e-16 0.000000000000000e+00 0.000000000000000e+00
4.918173958496105e-01 -9.906140842846106e-03 1.148575976532960e-01 -8.500145032286355e-17 0.000000000000000e+00 0.000000000000000e+00
        </DataArray>
  </PointData>
  <CellData>
        <DataArray type="Float64" Name="element_GL_strains_xyz" NumberOfComponents="6" format="ascii">
5.013966004488252e-02 -1.618541059932460e-02 0.000000000000000e+00 9.670883323244836e-04 0.000000000000000e+00 0.000000000000000e+00
5.013966004488246e-02 -1.618541059932466e-02 0.000000000000000e+00 -9.670883323244840e-04 0.000000000000000e+00 0.000000000000000e+00
        </DataArray>
        <DataArray type="Float64" Name="element_cauchy_stresses_xyz" NumberOfComponents="6" format="ascii">
5.083124705086430e-01 -5.953819498246523e-03 1.195537602231041e-01 6.973245040715385e-03 0.000000000000000e+00 0.000000000000000e+00
5.083124705086424e-01 -5.953819498247354e-03 1.195537602231037e-01 -6.973245040715432e-03 0.000000000000000e+00 0.000000000000000e+00
        </DataArray>
      </CellData>

    </Piece>
  </UnstructuredGrid>
</VTKFile>
