<?xml version="1.0" ?> 
<!-- 
# vtk DataFile Version 3.0
-->
<VTKFile type="UnstructuredGrid" version="0.1" compressor="vtkZLibDataCompressor" byte_order="LittleEndian">
  <UnstructuredGrid>
    <FieldData>
      <DataArray type="Float64" Name="TIME" NumberOfTuples="1" format="ascii">
2.000000000000000e+00 
      </DataArray>
    </FieldData>

    <Piece NumberOfPoints="8" NumberOfCells="2" >
      <Points>
        <DataArray type="Float64" NumberOfComponents="3" format="ascii">
0.000000000000000e+00 5.000000000000000e-01 0.000000000000000e+00
5.000000000000000e-01 5.000000000000001e-01 0.000000000000000e+00
5.000000000000000e-01 1.000000000000000e+00 0.000000000000000e+00
0.000000000000000e+00 1.000000000000000e+00 0.000000000000000e+00
0.000000000000000e+00 0.000000000000000e+00 0.000000000000000e+00
5.000000000000000e-01 0.000000000000000e+00 0.000000000000000e+00
5.000000000000000e-01 5.000000000000001e-01 0.000000000000000e+00
0.000000000000000e+00 5.000000000000000e-01 0.000000000000000e+00
        </DataArray>
      </Points>

      <Cells>
        <DataArray type="Int32" Name="connectivity" format="ascii">
0 1 2 3 4 5 6 7 
        </DataArray>
        <DataArray type="Int32" Name="offsets" format="ascii">
4 8 
        </DataArray>
        <DataArray type="UInt8" Name="types" format="ascii">
9 9 
        </DataArray>
      </Cells>

  <PointData>
        <DataArray type="Float64" Name="displacement" NumberOfComponents="2" format="ascii">
0.000000000000000e+00 0.000000000000000e+00
4.642353397705828e-02 3.489799392985639e-18
4.969874249912661e-02 -1.633050612811400e-02
0.000000000000000e+00 0.000000000000000e+00
0.000000000000000e+00 0.000000000000000e+00
4.969874249912666e-02 1.633050612811404e-02
4.642353397705828e-02 3.489799392985639e-18
0.000000000000000e+00 0.000000000000000e+00
        </DataArray>
        <DataArray type="Float64" Name="nodal_GL_strains_xyz" NumberOfComponents="6" format="ascii">
9.706488616086698e-02 -9.247080708780771e-05 0.000000000000000e+00 2.602085213965211e-18 0.000000000000000e+00 0.000000000000000e+00
1.036240662775935e-01 -3.215388713630025e-02 0.000000000000000e+00 -3.794707603699266e-18 0.000000000000000e+00 0.000000000000000e+00
1.042168897698264e-01 -3.215388713630023e-02 0.000000000000000e+00 -4.346126921859746e-03 0.000000000000000e+00 0.000000000000000e+00
1.047783150639552e-01 -9.247080708780879e-05 0.000000000000000e+00 -1.633050612811400e-02 0.000000000000000e+00 0.000000000000000e+00
1.047783150639551e-01 -9.247080708780662e-05 0.000000000000000e+00 1.633050612811403e-02 0.000000000000000e+00 0.000000000000000e+00
1.042168897698264e-01 -3.215388713630025e-02 0.000000000000000e+00 4.346126921859707e-03 0.000000000000000e+00 0.000000000000000e+00
1.036240662775935e-01 -3.215388713630025e-02 0.000000000000000e+00 -3.794707603699266e-18 0.000000000000000e+00 0.000000000000000e+00
9.706488616086698e-02 -9.247080708780771e-05 0.000000000000000e+00 2.602085213965211e-18 0.000000000000000e+00 0.000000000000000e+00
        </DataArray>
        <DataArray type="Float64" Name="nodal_cauchy_stresses_xyz" NumberOfComponents="6" format="ascii">
1.023283431797618e+00 3.122214288013833e-01 3.121956029092383e-01 2.081668171172169e-17 0.000000000000000e+00 0.000000000000000e+00
1.003284485505610e+00 -1.867165395574309e-02 2.231343889116596e-01 1.474514954580286e-17 0.000000000000000e+00 0.000000000000000e+00
1.007135114192235e+00 -1.510960684713870e-02 2.245950129015006e-01 -4.407101824518848e-02 0.000000000000000e+00 0.000000000000000e+00
1.089236599544517e+00 3.340443085697611e-01 3.301462543046680e-01 -1.306194836308097e-01 0.000000000000000e+00 0.000000000000000e+00
1.089236599544515e+00 3.340443085697606e-01 3.301462543046675e-01 1.306194836308100e-01 0.000000000000000e+00 0.000000000000000e+00
1.007135114192235e+00 -1.510960684713873e-02 2.245950129015007e-01 4.407101824518823e-02 0.000000000000000e+00 0.000000000000000e+00
1.003284485505610e+00 -1.867165395574309e-02 2.231343889116596e-01 1.474514954580286e-17 0.000000000000000e+00 0.000000000000000e+00
1.023283431797618e+00 3.122214288013833e-01 3.121956029092383e-01 2.081668171172169e-17 0.000000000000000e+00 0.000000000000000e+00
        </DataArray>
  </PointData>
  <CellData>
        <DataArray type="Float64" Name="element_GL_strains_xyz" NumberOfComponents="6" format="ascii">
1.009216006124110e-01 -1.614556451393845e-02 0.000000000000000e+00 -6.236895838284948e-03 0.000000000000000e+00 0.000000000000000e+00
1.009216006124111e-01 -1.614556451393845e-02 0.000000000000000e+00 6.236895838284946e-03 0.000000000000000e+00 0.000000000000000e+00
        </DataArray>
        <DataArray type="Float64" Name="element_cauchy_stresses_xyz" NumberOfComponents="6" format="ascii">
1.016210717455386e+00 1.494768989114996e-01 2.686697192934295e-01 -5.445691992390474e-02 0.000000000000000e+00 0.000000000000000e+00
1.016210717455386e+00 1.494768989114998e-01 2.686697192934297e-01 5.445691992390476e-02 0.000000000000000e+00 0.000000000000000e+00
        </DataArray>
      </CellData>

    </Piece>
  </UnstructuredGrid>
</VTKFile>
