<?xml version="1.0" ?> 
<!-- 
# vtk DataFile Version 3.0
-->
<VTKFile type="UnstructuredGrid" version="0.1" compressor="vtkZLibDataCompressor" byte_order="LittleEndian">
  <UnstructuredGrid>
    <FieldData>
      <DataArray type="Float64" Name="TIME" NumberOfTuples="1" format="ascii">
3.000000000000000e+00 
      </DataArray>
    </FieldData>

    <Piece NumberOfPoints="8" NumberOfCells="2" >
      <Points>
        <DataArray type="Float64" NumberOfComponents="3" format="ascii">
0.000000000000000e+00 5.000000000000000e-01 0.000000000000000e+00
5.000000000000000e-01 5.000000000000001e-01 0.000000000000000e+00
5.000000000000000e-01 1.000000000000000e+00 0.000000000000000e+00
0.000000000000000e+00 1.000000000000000e+00 0.000000000000000e+00
0.000000000000000e+00 0.000000000000000e+00 0.000000000000000e+00
5.000000000000000e-01 0.000000000000000e+00 0.000000000000000e+00
5.000000000000000e-01 5.000000000000001e-01 0.000000000000000e+00
0.000000000000000e+00 5.000000000000000e-01 0.000000000000000e+00
        </DataArray>
      </Points>

      <Cells>
        <DataArray type="Int32" Name="connectivity" format="ascii">
0 1 2 3 4 5 6 7 
        </DataArray>
        <DataArray type="Int32" Name="offsets" format="ascii">
4 8 
        </DataArray>
        <DataArray type="UInt8" Name="types" format="ascii">
9 9 
        </DataArray>
      </Cells>

  <PointData>
        <DataArray type="Float64" Name="displacement" NumberOfComponents="2" format="ascii">
0.000000000000000e+00 0.000000000000000e+00
7.271737807076244e-02 -5.340824636889892e-18
7.739810173640516e-02 -2.465139610902908e-02
0.000000000000000e+00 0.000000000000000e+00
0.000000000000000e+00 0.000000000000000e+00
7.739810173640514e-02 2.465139610902907e-02
7.271737807076244e-02 -5.340824636889892e-18
0.000000000000000e+00 0.000000000000000e+00
        </DataArray>
        <DataArray type="Float64" Name="nodal_GL_strains_xyz" NumberOfComponents="6" format="ascii">
1.558005234537778e-01 -2.098668347195382e-04 0.000000000000000e+00 -7.372574772901430e-18 0.000000000000000e+00 0.000000000000000e+00
1.660534727538757e-01 -4.815180363847490e-02 0.000000000000000e+00 6.288372600415926e-18 0.000000000000000e+00 0.000000000000000e+00
1.669057445182430e-01 -4.815180363847490e-02 0.000000000000000e+00 -6.296506579414657e-03 0.000000000000000e+00 0.000000000000000e+00
1.677826516031371e-01 -2.098668347195395e-04 0.000000000000000e+00 -2.465139610902908e-02 0.000000000000000e+00 0.000000000000000e+00
1.677826516031371e-01 -2.098668347195369e-04 0.000000000000000e+00 2.465139610902907e-02 0.000000000000000e+00 0.000000000000000e+00
1.669057445182430e-01 -4.815180363847490e-02 0.000000000000000e+00 6.296506579414699e-03 0.000000000000000e+00 0.000000000000000e+00
1.660534727538757e-01 -4.815180363847490e-02 0.000000000000000e+00 6.288372600415926e-18 0.000000000000000e+00 0.000000000000000e+00
1.558005234537778e-01 -2.098668347195382e-04 0.000000000000000e+00 -7.372574772901430e-18 0.000000000000000e+00 0.000000000000000e+00
        </DataArray>
        <DataArray type="Float64" Name="nodal_cauchy_stresses_xyz" NumberOfComponents="6" format="ascii">
1.535063960675762e+00 4.460127540795159e-01 4.459280323555687e-01 -6.938893903907228e-17 0.000000000000000e+00 0.000000000000000e+00
1.535306218703388e+00 -2.621192624945726e-02 3.243395428780298e-01 1.908195823574488e-17 0.000000000000000e+00 0.000000000000000e+00
1.538639628108994e+00 -2.005177911650356e-02 3.259201532837570e-01 -7.105305408898133e-02 0.000000000000000e+00 0.000000000000000e+00
1.621625931844906e+00 4.752304488502631e-01 4.667547510915455e-01 -1.971260509342339e-01 0.000000000000000e+00 0.000000000000000e+00
1.621625931844906e+00 4.752304488502632e-01 4.667547510915455e-01 1.971260509342338e-01 0.000000000000000e+00 0.000000000000000e+00
1.538639628108994e+00 -2.005177911650355e-02 3.259201532837570e-01 7.105305408898162e-02 0.000000000000000e+00 0.000000000000000e+00
1.535306218703388e+00 -2.621192624945726e-02 3.243395428780298e-01 1.908195823574488e-17 0.000000000000000e+00 0.000000000000000e+00
1.535063960675762e+00 4.460127540795159e-01 4.459280323555687e-01 -6.938893903907228e-17 0.000000000000000e+00 0.000000000000000e+00
        </DataArray>
  </PointData>
  <CellData>
        <DataArray type="Float64" Name="element_GL_strains_xyz" NumberOfComponents="6" format="ascii">
1.617915875284575e-01 -2.423166243959024e-02 0.000000000000000e+00 -9.330166017174693e-03 0.000000000000000e+00 0.000000000000000e+00
1.617915875284575e-01 -2.423166243959024e-02 0.000000000000000e+00 9.330166017174697e-03 0.000000000000000e+00 0.000000000000000e+00
        </DataArray>
        <DataArray type="Float64" Name="element_cauchy_stresses_xyz" NumberOfComponents="6" format="ascii">
1.537179738302306e+00 2.145577864409659e-01 3.860481317747011e-01 -8.482826280783848e-02 0.000000000000000e+00 0.000000000000000e+00
1.537179738302306e+00 2.145577864409659e-01 3.860481317747011e-01 8.482826280783851e-02 0.000000000000000e+00 0.000000000000000e+00
        </DataArray>
      </CellData>

    </Piece>
  </UnstructuredGrid>
</VTKFile>
