<?xml version="1.0" ?> 
<!-- 
# vtk DataFile Version 3.0
-->
<VTKFile type="UnstructuredGrid" version="0.1" compressor="vtkZLibDataCompressor" byte_order="LittleEndian">
  <UnstructuredGrid>
    <FieldData>
      <DataArray type="Float64" Name="TIME" NumberOfTuples="1" format="ascii">
3.000000000000000e+00 
      </DataArray>
    </FieldData>

    <Piece NumberOfPoints="8" NumberOfCells="2" >
      <Points>
        <DataArray type="Float64" NumberOfComponents="3" format="ascii">
5.000000000000000e-01 5.000000000000001e-01 0.000000000000000e+00
1.000000000000000e+00 5.000000000000000e-01 0.000000000000000e+00
1.000000000000000e+00 1.000000000000000e+00 0.000000000000000e+00
5.000000000000000e-01 1.000000000000000e+00 0.000000000000000e+00
5.000000000000000e-01 0.000000000000000e+00 0.000000000000000e+00
1.000000000000000e+00 0.000000000000000e+00 0.000000000000000e+00
1.000000000000000e+00 5.000000000000000e-01 0.000000000000000e+00
5.000000000000000e-01 5.000000000000001e-01 0.000000000000000e+00
        </DataArray>
      </Points>

      <Cells>
        <DataArray type="Int32" Name="connectivity" format="ascii">
0 1 2 3 4 5 6 7 
        </DataArray>
        <DataArray type="Int32" Name="offsets" format="ascii">
4 8 
        </DataArray>
        <DataArray type="UInt8" Name="types" format="ascii">
9 9 
        </DataArray>
      </Cells>

  <PointData>
        <DataArray type="Float64" Name="displacement" NumberOfComponents="2" format="ascii">
7.271737807076244e-02 -5.340824636889892e-18
1.542296221708851e-01 -1.666849618709862e-17
1.544749565296890e-01 -2.461411421862235e-02
7.739810173640516e-02 -2.465139610902908e-02
7.739810173640514e-02 2.465139610902907e-02
1.544749565296890e-01 2.461411421862237e-02
1.542296221708851e-01 -1.666849618709862e-17
7.271737807076244e-02 -5.340824636889892e-18
        </DataArray>
        <DataArray type="Float64" Name="nodal_GL_strains_xyz" NumberOfComponents="6" format="ascii">
1.660534727538757e-01 -4.815180363847490e-02 0.000000000000000e+00 6.288372600415926e-18 0.000000000000000e+00 0.000000000000000e+00
1.763064220539737e-01 -4.802295684456222e-02 0.000000000000000e+00 -3.106239224170970e-17 0.000000000000000e+00 0.000000000000000e+00
1.660288374333488e-01 -4.802295684456220e-02 0.000000000000000e+00 3.186001292918611e-04 0.000000000000000e+00 0.000000000000000e+00
1.669057445182430e-01 -4.815180363847490e-02 0.000000000000000e+00 -6.296506579414657e-03 0.000000000000000e+00 0.000000000000000e+00
1.669057445182430e-01 -4.815180363847490e-02 0.000000000000000e+00 6.296506579414699e-03 0.000000000000000e+00 0.000000000000000e+00
1.660288374333488e-01 -4.802295684456222e-02 0.000000000000000e+00 -3.186001292918573e-04 0.000000000000000e+00 0.000000000000000e+00
1.763064220539737e-01 -4.802295684456222e-02 0.000000000000000e+00 -3.106239224170970e-17 0.000000000000000e+00 0.000000000000000e+00
1.660534727538757e-01 -4.815180363847490e-02 0.000000000000000e+00 6.288372600415926e-18 0.000000000000000e+00 0.000000000000000e+00
        </DataArray>
        <DataArray type="Float64" Name="nodal_cauchy_stresses_xyz" NumberOfComponents="6" format="ascii">
1.535306218703388e+00 -2.621192624945726e-02 3.243395428780298e-01 1.908195823574488e-17 0.000000000000000e+00 0.000000000000000e+00
1.621649408632701e+00 -1.308743160196275e-03 3.460764307206604e-01 -2.337539883878748e-16 0.000000000000000e+00 0.000000000000000e+00
1.533849156857792e+00 -2.665551850185763e-02 3.233996350870966e-01 2.014209898815062e-03 0.000000000000000e+00 0.000000000000000e+00
1.538639628108994e+00 -2.005177911650356e-02 3.259201532837570e-01 -7.105305408898133e-02 0.000000000000000e+00 0.000000000000000e+00
1.538639628108994e+00 -2.005177911650355e-02 3.259201532837570e-01 7.105305408898162e-02 0.000000000000000e+00 0.000000000000000e+00
1.533849156857792e+00 -2.665551850185764e-02 3.233996350870967e-01 -2.014209898814937e-03 0.000000000000000e+00 0.000000000000000e+00
1.621649408632701e+00 -1.308743160196275e-03 3.460764307206604e-01 -2.337539883878748e-16 0.000000000000000e+00 0.000000000000000e+00
1.535306218703388e+00 -2.621192624945726e-02 3.243395428780298e-01 1.908195823574488e-17 0.000000000000000e+00 0.000000000000000e+00
        </DataArray>
  </PointData>
  <CellData>
        <DataArray type="Float64" Name="element_GL_strains_xyz" NumberOfComponents="6" format="ascii">
1.711676297436613e-01 -4.803655303852555e-02 0.000000000000000e+00 2.871361153345088e-03 0.000000000000000e+00 0.000000000000000e+00
1.711676297436613e-01 -4.803655303852555e-02 0.000000000000000e+00 -2.871361153345086e-03 0.000000000000000e+00 0.000000000000000e+00
        </DataArray>
        <DataArray type="Float64" Name="element_cauchy_stresses_xyz" NumberOfComponents="6" format="ascii">
1.577840299606676e+00 -1.436990380701500e-02 3.346214286199101e-01 1.716403444493090e-02 0.000000000000000e+00 0.000000000000000e+00
1.577840299606676e+00 -1.436990380701500e-02 3.346214286199102e-01 -1.716403444493089e-02 0.000000000000000e+00 0.000000000000000e+00
        </DataArray>
      </CellData>

    </Piece>
  </UnstructuredGrid>
</VTKFile>
