<?xml version="1.0" ?> 
<!-- 
# vtk DataFile Version 3.0
-->
<VTKFile type="PolyData" version="0.1" compressor="vtkZLibDataCompressor" byte_order="LittleEndian">
  <PolyData>
    <FieldData>
      <DataArray type="Float64" Name="TIME" NumberOfTuples="1" format="ascii">
4.999999999999998e+00 
      </DataArray>
    </FieldData>

    <Piece NumberOfPoints="80" >
      <Points>
        <DataArray type="Float64" NumberOfComponents="3" format="ascii">
9.499462067548401e-03 3.280379199625257e-05 2.961187101601670e-02
-9.499462045283397e-03 -3.280738424821991e-05 2.961377255107620e-02
9.439954080878709e-03 5.554676885411893e-04 1.456678389805089e-01
-9.439945492659713e-03 -5.555410863347973e-04 1.456784663794140e-01
9.133453262360437e-03 2.139438421504350e-03 3.156133298439671e-01
-9.133451295781785e-03 -2.139464495928396e-03 3.156155650841069e-01
8.472993620145865e-03 4.156269691856210e-03 4.855553183022189e-01
-8.473060875759809e-03 -4.156121397438176e-03 4.855428968282715e-01
7.765001591543969e-03 5.471972586405094e-03 6.016048695489105e-01
-7.765027535523071e-03 -5.471931446906995e-03 6.016011213270064e-01
7.314810298997488e-03 6.056477894952674e-03 6.608243282567958e-01
-7.314789923602009e-03 -6.056493357033112e-03 6.608263578929130e-01
6.329199301441604e-03 7.070974680859218e-03 7.768744664355443e-01
-6.329186299972553e-03 -7.070973186915165e-03 7.768749763437495e-01
4.678541110819570e-03 8.252320570535952e-03 9.468168657659108e-01
-4.678526193312954e-03 -8.252318484155285e-03 9.468174472131570e-01
2.815145729650906e-03 9.050215011059367e-03 1.116759286141448e+00
-2.815126352387657e-03 -9.050215099485316e-03 1.116760434377426e+00
1.439781280678461e-03 9.362194642470397e-03 1.232809462876821e+00
-1.439771152317267e-03 -9.362192282659432e-03 1.232809929599188e+00
7.131095305648624e-04 9.445278782736552e-03 1.292028984454241e+00
-7.131102250157721e-04 -9.445275242618381e-03 1.292028598331230e+00
-6.979729155941969e-04 9.451192514348479e-03 1.408079156570709e+00
6.979652647232219e-04 -9.451190152980515e-03 1.408078230946693e+00
-2.693733806799479e-03 9.091091152158094e-03 1.578021570509677e+00
2.693737001791293e-03 -9.091088029321194e-03 1.578021603723238e+00
-4.563484904506429e-03 8.305193573543824e-03 1.747963981891831e+00
4.563497382034348e-03 -8.305185083602468e-03 1.747964961049723e+00
-5.743706203152601e-03 7.531010771376691e-03 1.864014149323985e+00
5.743711866937355e-03 -7.531005153619758e-03 1.864014565232733e+00
-6.307939477104171e-03 7.065135369866132e-03 1.923233667505837e+00
6.307936932687526e-03 -7.065136404051923e-03 1.923233254158999e+00
-7.291425320587024e-03 6.052749016718143e-03 2.039283835428630e+00
7.291418537985267e-03 -6.052755790852692e-03 2.039282870726539e+00
-8.416767006608535e-03 4.365426641595533e-03 2.209226247243412e+00
8.416767041524595e-03 -4.365424653555707e-03 2.209226248827376e+00
-9.147766646453136e-03 2.473567930215448e-03 2.379168658952788e+00
9.147769123729100e-03 -2.473554921269838e-03 2.379169625979266e+00
-9.408782793212080e-03 1.086452819995829e-03 2.495218826682472e+00
9.408782479886158e-03 -1.086446319859023e-03 2.495219240855686e+00
-9.464577127281874e-03 3.568651392031785e-04 2.554438344766031e+00
9.464575832712254e-03 -3.568690244480732e-04 2.554437930762525e+00
-9.417516516615831e-03 -1.053807597326224e-03 2.670488512515463e+00
9.417516261004137e-03 1.053796916961178e-03 2.670487546285458e+00
-8.982680952303090e-03 -3.034817418382385e-03 2.840430924243032e+00
8.982678887433444e-03 3.034818093356377e-03 2.840430924272826e+00
-8.126979580548269e-03 -4.873636894663024e-03 3.010373335971013e+00
8.126971040954839e-03 4.873647349279209e-03 3.010374302242452e+00
-7.308855383810210e-03 -6.023804274832448e-03 3.126423503721199e+00
7.308849438152806e-03 6.023808460715641e-03 3.126423917735533e+00
-6.822014426539365e-03 -6.570061432829202e-03 3.185643021805638e+00
6.822015201472565e-03 6.570057836493456e-03 3.185642607726436e+00
-5.773225732762502e-03 -7.514654320049590e-03 3.301693189542322e+00
5.773231971501273e-03 7.514647004664707e-03 3.301692222910937e+00
-4.044636607414666e-03 -8.575532502507106e-03 3.471635601260245e+00
4.044633195127151e-03 8.575532118944405e-03 3.471635600000650e+00
-2.126550782526010e-03 -9.234629553195815e-03 3.641578013056155e+00
2.126535619964311e-03 9.234631655687385e-03 3.641578977024765e+00
-7.305872835902314e-04 -9.443123677343465e-03 3.757628180935718e+00
7.305782854597240e-04 9.443123558656874e-03 3.757628592187122e+00
5.745152916941645e-07 -9.471349630191321e-03 3.816847699121013e+00
-5.733571960282583e-07 9.471349086621320e-03 3.816847285138532e+00
1.408397025356619e-03 -9.371070279788162e-03 3.932897867093296e+00
-1.408389549471460e-03 9.371071293206600e-03 3.932896907192788e+00
3.371525354891209e-03 -8.861817428759106e-03 4.102840279011595e+00
-3.371529469295874e-03 8.861816647559856e-03 4.102840266782841e+00
5.176996802580345e-03 -7.937633125015954e-03 4.272782690461800e+00
-5.177010675115589e-03 7.937626468825957e-03 4.272783579849488e+00
6.295977884961897e-03 -7.077162454133925e-03 4.388832857576498e+00
-6.295985993046995e-03 7.077159825495952e-03 4.388833124325650e+00
6.823552721667354e-03 -6.570371495516098e-03 4.448052375404623e+00
-6.823556483293643e-03 6.570373782492658e-03 4.448052096700640e+00
7.723234750481697e-03 -5.486760608080411e-03 4.564102545778647e+00
-7.723242235395354e-03 5.486760424846715e-03 4.564102581978739e+00
8.709570387452717e-03 -3.717959602068789e-03 4.734044958219341e+00
-8.709581242065244e-03 3.717953123364943e-03 4.734045577329779e+00
9.303150801353506e-03 -1.773074220237497e-03 4.903987348204726e+00
-9.303153301286723e-03 1.773091168802500e-03 4.903985936250931e+00
9.483270334488696e-03 -3.668610974338268e-04 5.020037477438628e+00
-9.483267695248526e-03 3.669285784699985e-04 5.020032011740254e+00
        </DataArray>
      </Points>

  <PointData>
        <DataArray type="Float64" Name="force" NumberOfComponents="3" format="ascii">
8.908665516030193e-01 3.076532227846191e-03 -8.916367954034759e-05
-8.908665516030193e-01 -3.076532227846191e-03 8.916367954034759e-05
9.617659323933099e-01 5.659619036127588e-02 -5.413731242056210e-04
-9.617659323933099e-01 -5.659619036127588e-02 5.413731242056210e-04
1.059922566393007e+00 2.482799287178785e-01 -1.296980261738057e-04
-1.059922566393007e+00 -2.482799287178785e-01 1.296980261738057e-04
8.930911268141871e-01 4.380797150305267e-01 6.546366392882824e-04
-8.930911268141871e-01 -4.380797150305267e-01 -6.546366392882824e-04
7.284494858930681e-01 5.133333106783975e-01 1.758135993627192e-04
-7.284494858930681e-01 -5.133333106783975e-01 -1.758135993627192e-04
6.898502332689702e-01 5.711800675765796e-01 -9.570630280930776e-05
-6.898502332689702e-01 -5.711800675765796e-01 9.570630280930776e-05
6.050169170169729e-01 6.759248745448035e-01 -2.437144040283055e-05
-6.050169170169729e-01 -6.759248745448035e-01 2.437144040283055e-05
4.503648022489485e-01 7.943844222188590e-01 -2.798562471654072e-05
-4.503648022489485e-01 -7.943844222188590e-01 2.798562471654072e-05
2.753873606691978e-01 8.853266063325634e-01 -5.616241463572336e-05
-2.753873606691978e-01 -8.853266063325634e-01 5.616241463572336e-05
1.423785731083503e-01 9.258214791231032e-01 -2.307694204654320e-05
-1.423785731083503e-01 -9.258214791231032e-01 2.307694204654320e-05
7.053195901874729e-02 9.342093160218018e-01 1.909524274708980e-05
-7.053195901874729e-02 -9.342093160218018e-01 -1.909524274708980e-05
-6.841051535665961e-02 9.263459929484319e-01 4.536190559557391e-05
6.841051535665961e-02 -9.263459929484319e-01 -4.536190559557391e-05
-2.615750573301722e-01 8.827898527448285e-01 -1.612600665231319e-06
2.615750573301722e-01 -8.827898527448285e-01 1.612600665231319e-06
-4.477608457867368e-01 8.148889701834479e-01 -4.803653084448181e-05
4.477608457867368e-01 -8.148889701834479e-01 4.803653084448181e-05
-5.689773951042848e-01 7.460289626210691e-01 -2.060016221894080e-05
5.689773951042848e-01 -7.460289626210691e-01 2.060016221894080e-05
-6.248732871202336e-01 6.998823612775243e-01 2.047336143660734e-05
6.248732871202336e-01 -6.998823612775243e-01 -2.047336143660734e-05
-7.154904348557973e-01 5.939426481499597e-01 4.733199678754390e-05
7.154904348557973e-01 -5.939426481499597e-01 -4.733199678754390e-05
-8.177432754857477e-01 4.241292954563959e-01 -7.694619128297181e-08
8.177432754857477e-01 -4.241292954563959e-01 7.694619128297181e-08
-8.976929802226536e-01 2.427366714953100e-01 -4.744834431197850e-05
8.976929802226536e-01 -2.427366714953100e-01 4.744834431197850e-05
-9.321093234212835e-01 1.076323912110083e-01 -2.051565697415510e-05
9.321093234212835e-01 -1.076323912110083e-01 2.051565697415510e-05
-9.376368308244989e-01 3.535411440076088e-02 2.050725334997612e-05
9.376368308244989e-01 -3.535411440076088e-02 -2.050725334997612e-05
-9.241686529654495e-01 -1.034127228739027e-01 4.740949976682698e-05
9.241686529654495e-01 1.034127228739027e-01 -4.740949976682698e-05
-8.727476356333146e-01 -2.948596682327123e-01 -1.447395595871559e-09
8.727476356333146e-01 2.948596682327123e-01 1.447395595871559e-09
-7.975239628117240e-01 -4.782648192985715e-01 -4.741152753399535e-05
7.975239628117240e-01 4.782648192985715e-01 4.741152753399535e-05
-7.240731833959295e-01 -5.967662784271619e-01 -2.050778014669627e-05
7.240731833959295e-01 5.967662784271619e-01 2.050778014669627e-05
-6.758429674504872e-01 -6.508822863738059e-01 2.051098712729551e-05
6.758429674504872e-01 6.508822863738059e-01 -2.051098712729551e-05
-5.665421543756256e-01 -7.374324636481225e-01 4.742904198059031e-05
5.665421543756256e-01 7.374324636481225e-01 -4.742904198059031e-05
-3.929656929069879e-01 -8.331753245445513e-01 6.118943314306970e-08
3.929656929069879e-01 8.331753245445513e-01 -6.118943314306970e-08
-2.086739838366454e-01 -9.061782315827396e-01 -4.729628111661539e-05
2.086739838366454e-01 9.061782315827396e-01 4.729628111661539e-05
-7.237180322304104e-02 -9.354393489262333e-01 -2.036935874129102e-05
7.237180322304104e-02 9.354393489262333e-01 2.036935874129102e-05
5.685363373082770e-05 -9.382237715758506e-01 2.050437531823902e-05
-5.685363373082770e-05 9.382237715758506e-01 -2.050437531823902e-05
1.382038655005209e-01 -9.195714138562247e-01 4.709691599736016e-05
-1.382038655005209e-01 9.195714138562247e-01 -4.709691599736016e-05
3.275626615910228e-01 -8.609748700662965e-01 5.940457723845187e-07
-3.275626615910228e-01 8.609748700662965e-01 -5.940457723845187e-07
5.076650827029165e-01 -7.783763911701804e-01 -4.360737377544478e-05
-5.076650827029165e-01 7.783763911701804e-01 4.360737377544478e-05
6.224826571485489e-01 -6.997177110830568e-01 -1.318672153736902e-05
-6.224826571485489e-01 6.997177110830568e-01 1.318672153736902e-05
6.742997682182964e-01 -6.492804712045463e-01 1.377068418070733e-05
-6.742997682182964e-01 6.492804712045463e-01 -1.377068418070733e-05
7.615057465420635e-01 -5.409906306800308e-01 -1.784651475296755e-06
-7.615057465420635e-01 5.409906306800308e-01 1.784651475296755e-06
8.650505982941069e-01 -3.692740547191171e-01 -3.074557623884260e-05
-8.650505982941069e-01 3.692740547191171e-01 3.074557623884260e-05
9.228505502817826e-01 -1.758855849400739e-01 7.003122866903180e-05
-9.228505502817826e-01 1.758855849400739e-01 -7.003122866903180e-05
9.056156597554003e-01 -3.503704368311390e-02 2.609765699538639e-04
-9.056156597554003e-01 3.503704368311390e-02 -2.609765699538639e-04
        </DataArray>
        <DataArray type="Float64" Name="gap" format="ascii">
-1.000962501025864e-03
-1.000962501025864e-03
-1.087436415272643e-03
-1.087436415272643e-03
-1.238634982779374e-03
-1.238634982779374e-03
-1.125022837295920e-03
-1.125022837295920e-03
-1.001293353834250e-03
-1.001293353834250e-03
-1.006599057990162e-03
-1.006599057990162e-03
-1.020289364983881e-03
-1.020289364983881e-03
-1.027445633289489e-03
-1.027445633289489e-03
-1.044116079091922e-03
-1.044116079091922e-03
-1.055489234235308e-03
-1.055489234235308e-03
-1.055683323879085e-03
-1.055683323879085e-03
-1.046142483331073e-03
-1.046142483331073e-03
-1.036443331960651e-03
-1.036443331960651e-03
-1.047256511223494e-03
-1.047256511223494e-03
-1.057320732936011e-03
-1.057320732936011e-03
-1.057325474928851e-03
-1.057325474928851e-03
-1.047359482640144e-03
-1.047359482640144e-03
-1.036993042038300e-03
-1.036993042038300e-03
-1.047410346845849e-03
-1.047410346845849e-03
-1.057395805992404e-03
-1.057395805992404e-03
-1.057395944310709e-03
-1.057395944310709e-03
-1.047415546784558e-03
-1.047415546784558e-03
-1.037019500706685e-03
-1.037019500706685e-03
-1.047415430286393e-03
-1.047415430286393e-03
-1.057395452071824e-03
-1.057395452071824e-03
-1.057395134946369e-03
-1.057395134946369e-03
-1.047412188310868e-03
-1.047412188310868e-03
-1.037001724739778e-03
-1.037001724739778e-03
-1.047365500325786e-03
-1.047365500325786e-03
-1.057314349632594e-03
-1.057314349632594e-03
-1.057301243884808e-03
-1.057301243884808e-03
-1.047370676559963e-03
-1.047370676559963e-03
-1.036983540760272e-03
-1.036983540760272e-03
-1.046653624991092e-03
-1.046653624991092e-03
-1.055280588727038e-03
-1.055280588727038e-03
-1.054742646474382e-03
-1.054742646474382e-03
-1.052392891538155e-03
-1.052392891538155e-03
-1.060104489842000e-03
-1.060104489842000e-03
-1.058779254758547e-03
-1.058779254758547e-03
-1.019271826513346e-03
-1.019271826513346e-03
        </DataArray>
      </PointData>

    </Piece>
  </PolyData>
</VTKFile>
