<?xml version="1.0" ?> 
<!-- 
# vtk DataFile Version 3.0
-->
<VTKFile type="UnstructuredGrid" version="0.1" compressor="vtkZLibDataCompressor" byte_order="LittleEndian">
  <UnstructuredGrid>
    <FieldData>
      <DataArray type="Float64" Name="TIME" NumberOfTuples="1" format="ascii">
1.000000000000000e+00 
      </DataArray>
      <DataArray type="Float64" Name="sum_coupling_force_beam" NumberOfTuples="1" NumberOfComponents="3" format="ascii">
1.290139743712460e+00 -5.295361089550132e-03 -5.495945340445314e-01 
      </DataArray>
      <DataArray type="Float64" Name="sum_coupling_force_solid" NumberOfTuples="1" NumberOfComponents="3" format="ascii">
-1.290139743712460e+00 5.295361089550137e-03 5.495945340445315e-01 
      </DataArray>
      <DataArray type="Float64" Name="sum_coupling_moment_beam" NumberOfTuples="1" NumberOfComponents="3" format="ascii">
-1.533769186629761e-03 -2.303292463008408e+00 4.778467465552741e-02 
      </DataArray>
      <DataArray type="Float64" Name="sum_coupling_moment_solid" NumberOfTuples="1" NumberOfComponents="3" format="ascii">
1.533769186629780e-03 2.303292463008408e+00 -4.778467465552741e-02 
      </DataArray>
    </FieldData>

    <Piece NumberOfPoints="24" NumberOfCells="0" >
      <Points>
        <DataArray type="Float64" NumberOfComponents="3" format="ascii">
-5.000000000000000e+00 -5.000000000000000e-01 1.000000000000000e-01
-5.000000000000000e+00 -5.000000000000000e-01 -1.000000000000000e-01
-5.000000000000000e+00 5.000000000000000e-01 -1.000000000000000e-01
-5.000000000000000e+00 5.000000000000000e-01 1.000000000000000e-01
-4.000000000000000e+00 -5.000000000000000e-01 1.000000000000000e-01
-4.000000000000000e+00 -5.000000000000000e-01 -1.000000000000000e-01
-4.000000000000000e+00 5.000000000000000e-01 -1.000000000000000e-01
-4.000000000000000e+00 5.000000000000000e-01 1.000000000000000e-01
-3.000000000000000e+00 -5.000000000000000e-01 1.000000000000000e-01
-3.000000000000000e+00 -5.000000000000000e-01 -1.000000000000000e-01
-3.000000000000000e+00 5.000000000000000e-01 -1.000000000000000e-01
-3.000000000000000e+00 5.000000000000000e-01 1.000000000000000e-01
-2.000000000000000e+00 -5.000000000000000e-01 1.000000000000000e-01
-2.000000000000000e+00 -5.000000000000000e-01 -1.000000000000000e-01
-2.000000000000000e+00 5.000000000000000e-01 -1.000000000000000e-01
-2.000000000000000e+00 5.000000000000000e-01 1.000000000000000e-01
-5.000000000000000e+00 0.000000000000000e+00 2.000000000000000e-01
-4.500000000000000e+00 0.000000000000000e+00 2.000000000000000e-01
-4.000000000000000e+00 0.000000000000000e+00 2.000000000000000e-01
-3.500000000000000e+00 0.000000000000000e+00 2.000000000000000e-01
-3.000000000000000e+00 0.000000000000000e+00 2.000000000000000e-01
-2.500000000000000e+00 0.000000000000000e+00 2.000000000000000e-01
-2.000000000000000e+00 0.000000000000000e+00 2.000000000000000e-01
-1.500000000000000e+00 0.000000000000000e+00 2.000000000000000e-01
        </DataArray>
      </Points>

      <Cells>
        <DataArray type="Int32" Name="connectivity" format="ascii">
0 1 2 3 4 5 6 7 8 9 10 11 12 13 14 15 16 17 18 19 20 21 22 23 
        </DataArray>
        <DataArray type="Int32" Name="offsets" format="ascii">

        </DataArray>
        <DataArray type="UInt8" Name="types" format="ascii">

        </DataArray>
      </Cells>

  <PointData>
        <DataArray type="Float64" Name="displacement" NumberOfComponents="3" format="ascii">
0.000000000000000e+00 0.000000000000000e+00 0.000000000000000e+00
0.000000000000000e+00 0.000000000000000e+00 0.000000000000000e+00
0.000000000000000e+00 0.000000000000000e+00 0.000000000000000e+00
0.000000000000000e+00 0.000000000000000e+00 0.000000000000000e+00
-2.463030213045217e-03 4.707871430402399e-04 3.201509313790631e-02
1.047709673818975e-02 3.743207055735973e-04 3.242332602706964e-02
9.654038404045761e-03 3.738512590529712e-04 3.188833867991680e-02
-3.139226780145670e-03 4.704232799653381e-04 3.148967277590231e-02
-9.667813329318856e-03 1.700261119463796e-03 1.288867216852367e-01
1.587399784431135e-02 1.449187887202450e-03 1.304996478886455e-01
1.457504130701814e-02 1.447368104468317e-03 1.290696575453762e-01
-1.082244243452862e-02 1.698646187374525e-03 1.274750631088320e-01
-2.363806926540258e-02 3.411563547597355e-03 2.840446932654790e-01
1.261733843973427e-02 3.042151899093052e-03 2.873405261641839e-01
1.113282484255105e-02 3.038760844927160e-03 2.851885319862462e-01
-2.501835556413819e-02 3.408363569277473e-03 2.819120567073768e-01
0.000000000000000e+00 0.000000000000000e+00 0.000000000000000e+00
7.693982165569903e-02 -4.032118289689116e-02 2.355491056008895e-03
-1.041049647686165e-02 5.986586301458890e-04 3.809334743527348e-02
2.306661372987422e-01 -9.561809664605250e-02 1.261795628368561e-02
-2.318797739105776e-02 1.879223993101603e-03 1.322854235545014e-01
3.839913758301993e-01 -1.523646233017237e-01 3.157638059845288e-02
-4.282905714773436e-02 3.609281469610220e-03 2.853368147525548e-01
5.367508437621594e-01 -2.004221217758335e-01 5.761316839567394e-02
        </DataArray>
        <DataArray type="Float64" Name="force_beam" NumberOfComponents="3" format="ascii">
0.000000000000000e+00 0.000000000000000e+00 0.000000000000000e+00
0.000000000000000e+00 0.000000000000000e+00 0.000000000000000e+00
0.000000000000000e+00 0.000000000000000e+00 0.000000000000000e+00
0.000000000000000e+00 0.000000000000000e+00 0.000000000000000e+00
0.000000000000000e+00 0.000000000000000e+00 0.000000000000000e+00
0.000000000000000e+00 0.000000000000000e+00 0.000000000000000e+00
0.000000000000000e+00 0.000000000000000e+00 0.000000000000000e+00
0.000000000000000e+00 0.000000000000000e+00 0.000000000000000e+00
0.000000000000000e+00 0.000000000000000e+00 0.000000000000000e+00
0.000000000000000e+00 0.000000000000000e+00 0.000000000000000e+00
0.000000000000000e+00 0.000000000000000e+00 0.000000000000000e+00
0.000000000000000e+00 0.000000000000000e+00 0.000000000000000e+00
0.000000000000000e+00 0.000000000000000e+00 0.000000000000000e+00
0.000000000000000e+00 0.000000000000000e+00 0.000000000000000e+00
0.000000000000000e+00 0.000000000000000e+00 0.000000000000000e+00
0.000000000000000e+00 0.000000000000000e+00 0.000000000000000e+00
4.436194648970862e-01 -9.614783039246124e-03 -5.180476637846985e-01
0.000000000000000e+00 0.000000000000000e+00 0.000000000000000e+00
1.013652963639831e-01 -3.087970947662780e-03 -8.697891581908891e-02
0.000000000000000e+00 0.000000000000000e+00 0.000000000000000e+00
5.117152750318599e-02 8.155191773884395e-04 -5.518235114229547e-02
0.000000000000000e+00 0.000000000000000e+00 0.000000000000000e+00
1.162364195988681e-01 6.754408087931023e-04 3.867344319204219e-04
0.000000000000000e+00 0.000000000000000e+00 0.000000000000000e+00
        </DataArray>
        <DataArray type="Float64" Name="force_solid" NumberOfComponents="3" format="ascii">
-2.086472066143789e-01 4.559525572096358e-03 2.215404002326936e-01
0.000000000000000e+00 0.000000000000000e+00 0.000000000000000e+00
0.000000000000000e+00 0.000000000000000e+00 0.000000000000000e+00
-2.085994756000699e-01 4.559523329586612e-03 2.196737957387389e-01
-6.547823611487687e-02 1.795508326446303e-03 8.130286806357737e-02
0.000000000000000e+00 0.000000000000000e+00 0.000000000000000e+00
0.000000000000000e+00 0.000000000000000e+00 0.000000000000000e+00
-6.542243313704922e-02 1.795150331371332e-03 8.057804528407440e-02
-2.378885330152712e-02 -4.176660787379617e-04 2.321756290842379e-02
0.000000000000000e+00 0.000000000000000e+00 0.000000000000000e+00
0.000000000000000e+00 0.000000000000000e+00 0.000000000000000e+00
-2.380925123781820e-02 -4.174553694482150e-04 2.338656889504307e-02
-5.701073916922438e-02 -3.422337979441738e-04 2.110744108213461e-04
0.000000000000000e+00 0.000000000000000e+00 0.000000000000000e+00
0.000000000000000e+00 0.000000000000000e+00 0.000000000000000e+00
-5.702893235524197e-02 -3.420467312745083e-04 3.109235892288773e-04
0.000000000000000e+00 0.000000000000000e+00 0.000000000000000e+00
0.000000000000000e+00 0.000000000000000e+00 0.000000000000000e+00
0.000000000000000e+00 0.000000000000000e+00 0.000000000000000e+00
0.000000000000000e+00 0.000000000000000e+00 0.000000000000000e+00
0.000000000000000e+00 0.000000000000000e+00 0.000000000000000e+00
0.000000000000000e+00 0.000000000000000e+00 0.000000000000000e+00
0.000000000000000e+00 0.000000000000000e+00 0.000000000000000e+00
0.000000000000000e+00 0.000000000000000e+00 0.000000000000000e+00
        </DataArray>
      </PointData>

    </Piece>
  </UnstructuredGrid>
</VTKFile>
