<?xml version="1.0" ?> 
<!-- 
# vtk DataFile Version 3.0
-->
<VTKFile type="UnstructuredGrid" version="0.1" compressor="vtkZLibDataCompressor" byte_order="LittleEndian">
  <UnstructuredGrid>
    <FieldData>
      <DataArray type="Float64" Name="TIME" NumberOfTuples="1" format="ascii">
3.000000000000000e+00 
      </DataArray>
    </FieldData>

    <Piece NumberOfPoints="216" NumberOfCells="8" >
      <Points>
        <DataArray type="Float64" NumberOfComponents="3" format="ascii">
0.000000000000000e+00 7.000000000000000e-01 0.000000000000000e+00
3.423291730615980e-01 6.105822931924760e-01 0.000000000000000e+00
4.890416762415440e-01 8.722604189151504e-01 0.000000000000000e+00
0.000000000000000e+00 1.000000000000000e+00 0.000000000000000e+00
0.000000000000000e+00 7.000000000000000e-01 4.999999999996251e-01
3.423291730615981e-01 6.105822931924761e-01 4.999999999996251e-01
4.890416762415442e-01 8.722604189151506e-01 4.999999999996251e-01
0.000000000000000e+00 1.000000000000000e+00 4.999999999996251e-01
1.708365599019088e-01 6.788334623669607e-01 0.000000000000000e+00
4.156854249015710e-01 7.414213561741364e-01 0.000000000000000e+00
2.440522288860949e-01 9.697620891119340e-01 0.000000000000000e+00
0.000000000000000e+00 8.500000000000000e-01 0.000000000000000e+00
1.708365599019088e-01 6.788334623669607e-01 4.999999999996250e-01
4.156854249015710e-01 7.414213561741363e-01 4.999999999996250e-01
2.440522288860949e-01 9.697620891119340e-01 4.999999999996250e-01
0.000000000000000e+00 8.500000000000001e-01 4.999999999996251e-01
0.000000000000000e+00 7.000000000000001e-01 2.499999999999063e-01
3.423291730615980e-01 6.105822931924759e-01 2.499999999999062e-01
4.890416762415440e-01 8.722604189151503e-01 2.499999999999062e-01
0.000000000000000e+00 1.000000000000000e+00 2.499999999999063e-01
0.000000000000000e+00 8.500000000000001e-01 2.499999999999062e-01
4.156854249015712e-01 7.414213561741365e-01 2.499999999999062e-01
1.708365599019088e-01 6.788334623669607e-01 2.499999999999062e-01
2.440522288860949e-01 9.697620891119340e-01 2.499999999999062e-01
2.074443945759666e-01 8.242977757679297e-01 0.000000000000000e+00
2.074443945759665e-01 8.242977757679297e-01 4.999999999996250e-01
2.074443945759666e-01 8.242977757679298e-01 2.499999999999063e-01
3.423291730615980e-01 6.105822931924760e-01 0.000000000000000e+00
6.105822931924760e-01 3.423291730615980e-01 0.000000000000000e+00
8.722604189151504e-01 4.890416762415440e-01 0.000000000000000e+00
4.890416762415440e-01 8.722604189151504e-01 0.000000000000000e+00
3.423291730615981e-01 6.105822931924761e-01 4.999999999996251e-01
6.105822931924760e-01 3.423291730615980e-01 4.999999999996250e-01
8.722604189151506e-01 4.890416762415440e-01 4.999999999996250e-01
4.890416762415442e-01 8.722604189151506e-01 4.999999999996251e-01
4.949747464933467e-01 4.949747464933468e-01 0.000000000000000e+00
7.414213561741367e-01 4.156854249015711e-01 0.000000000000000e+00
7.071067809042735e-01 7.071067809042735e-01 0.000000000000000e+00
4.156854249015710e-01 7.414213561741364e-01 0.000000000000000e+00
4.949747464933467e-01 4.949747464933468e-01 4.999999999996250e-01
7.414213561741365e-01 4.156854249015711e-01 4.999999999996250e-01
7.071067809042734e-01 7.071067809042736e-01 4.999999999996250e-01
4.156854249015710e-01 7.414213561741363e-01 4.999999999996250e-01
3.423291730615980e-01 6.105822931924759e-01 2.499999999999062e-01
6.105822931924759e-01 3.423291730615980e-01 2.499999999999062e-01
8.722604189151505e-01 4.890416762415440e-01 2.499999999999062e-01
4.890416762415440e-01 8.722604189151503e-01 2.499999999999062e-01
4.156854249015712e-01 7.414213561741365e-01 2.499999999999062e-01
7.414213561741365e-01 4.156854249015712e-01 2.499999999999062e-01
4.949747464933467e-01 4.949747464933468e-01 2.499999999999062e-01
7.071067809042734e-01 7.071067809042735e-01 2.499999999999062e-01
6.010407639157731e-01 6.010407639157732e-01 0.000000000000000e+00
6.010407639157730e-01 6.010407639157731e-01 4.999999999996251e-01
6.010407639157728e-01 6.010407639157729e-01 2.499999999999062e-01
6.105822931924760e-01 3.423291730615980e-01 0.000000000000000e+00
7.000000000000000e-01 0.000000000000000e+00 0.000000000000000e+00
1.000000000000000e+00 0.000000000000000e+00 0.000000000000000e+00
8.722604189151504e-01 4.890416762415440e-01 0.000000000000000e+00
6.105822931924760e-01 3.423291730615980e-01 4.999999999996250e-01
7.000000000000000e-01 0.000000000000000e+00 4.999999999996251e-01
1.000000000000000e+00 0.000000000000000e+00 4.999999999996251e-01
8.722604189151506e-01 4.890416762415440e-01 4.999999999996250e-01
6.788334623669608e-01 1.708365599019088e-01 0.000000000000000e+00
8.500000000000000e-01 0.000000000000000e+00 0.000000000000000e+00
9.697620891119342e-01 2.440522288860949e-01 0.000000000000000e+00
7.414213561741367e-01 4.156854249015711e-01 0.000000000000000e+00
6.788334623669608e-01 1.708365599019088e-01 4.999999999996250e-01
8.500000000000001e-01 0.000000000000000e+00 4.999999999996251e-01
9.697620891119340e-01 2.440522288860949e-01 4.999999999996250e-01
7.414213561741365e-01 4.156854249015711e-01 4.999999999996250e-01
6.105822931924759e-01 3.423291730615980e-01 2.499999999999062e-01
7.000000000000001e-01 0.000000000000000e+00 2.499999999999063e-01
1.000000000000000e+00 0.000000000000000e+00 2.499999999999063e-01
8.722604189151505e-01 4.890416762415440e-01 2.499999999999062e-01
7.414213561741365e-01 4.156854249015712e-01 2.499999999999062e-01
8.500000000000001e-01 0.000000000000000e+00 2.499999999999062e-01
6.788334623669608e-01 1.708365599019088e-01 2.499999999999063e-01
9.697620891119341e-01 2.440522288860949e-01 2.499999999999063e-01
8.242977757679298e-01 2.074443945759666e-01 0.000000000000000e+00
8.242977757679297e-01 2.074443945759666e-01 4.999999999996250e-01
8.242977757679297e-01 2.074443945759666e-01 2.499999999999062e-01
0.000000000000000e+00 7.000000000000000e-01 4.999999999996251e-01
3.423291730615981e-01 6.105822931924761e-01 4.999999999996251e-01
4.890416762415442e-01 8.722604189151506e-01 4.999999999996251e-01
0.000000000000000e+00 1.000000000000000e+00 4.999999999996251e-01
0.000000000000000e+00 7.000000000000000e-01 1.000000000000375e+00
3.423291730615980e-01 6.105822931924760e-01 1.000000000000375e+00
4.890416762415440e-01 8.722604189151505e-01 1.000000000000375e+00
0.000000000000000e+00 1.000000000000000e+00 1.000000000000375e+00
1.708365599019088e-01 6.788334623669607e-01 4.999999999996250e-01
4.156854249015710e-01 7.414213561741363e-01 4.999999999996250e-01
2.440522288860949e-01 9.697620891119340e-01 4.999999999996250e-01
0.000000000000000e+00 8.500000000000001e-01 4.999999999996251e-01
1.708365599019088e-01 6.788334623669608e-01 1.000000000000375e+00
4.156854249015710e-01 7.414213561741364e-01 1.000000000000375e+00
2.440522288860949e-01 9.697620891119340e-01 1.000000000000375e+00
0.000000000000000e+00 8.500000000000000e-01 1.000000000000375e+00
0.000000000000000e+00 7.000000000000001e-01 7.500000000000000e-01
3.423291730615980e-01 6.105822931924759e-01 7.499999999999998e-01
4.890416762415440e-01 8.722604189151503e-01 7.499999999999998e-01
0.000000000000000e+00 1.000000000000000e+00 7.500000000000000e-01
0.000000000000000e+00 8.500000000000001e-01 7.499999999999999e-01
4.156854249015711e-01 7.414213561741363e-01 7.499999999999997e-01
1.708365599019088e-01 6.788334623669607e-01 7.499999999999998e-01
2.440522288860949e-01 9.697620891119340e-01 7.499999999999998e-01
2.074443945759665e-01 8.242977757679297e-01 4.999999999996250e-01
2.074443945759666e-01 8.242977757679297e-01 1.000000000000375e+00
2.074443945759665e-01 8.242977757679298e-01 7.499999999999997e-01
3.423291730615981e-01 6.105822931924761e-01 4.999999999996251e-01
6.105822931924760e-01 3.423291730615980e-01 4.999999999996250e-01
8.722604189151506e-01 4.890416762415440e-01 4.999999999996250e-01
4.890416762415442e-01 8.722604189151506e-01 4.999999999996251e-01
3.423291730615980e-01 6.105822931924760e-01 1.000000000000375e+00
6.105822931924760e-01 3.423291730615980e-01 1.000000000000375e+00
8.722604189151506e-01 4.890416762415440e-01 1.000000000000375e+00
4.890416762415440e-01 8.722604189151505e-01 1.000000000000375e+00
4.949747464933467e-01 4.949747464933468e-01 4.999999999996250e-01
7.414213561741365e-01 4.156854249015711e-01 4.999999999996250e-01
7.071067809042734e-01 7.071067809042736e-01 4.999999999996250e-01
4.156854249015710e-01 7.414213561741363e-01 4.999999999996250e-01
4.949747464933468e-01 4.949747464933469e-01 1.000000000000375e+00
7.414213561741364e-01 4.156854249015711e-01 1.000000000000375e+00
7.071067809042735e-01 7.071067809042736e-01 1.000000000000375e+00
4.156854249015710e-01 7.414213561741364e-01 1.000000000000375e+00
3.423291730615980e-01 6.105822931924759e-01 7.499999999999998e-01
6.105822931924761e-01 3.423291730615982e-01 7.500000000000001e-01
8.722604189151506e-01 4.890416762415441e-01 7.500000000000001e-01
4.890416762415440e-01 8.722604189151503e-01 7.499999999999998e-01
4.156854249015711e-01 7.414213561741363e-01 7.499999999999997e-01
7.414213561741364e-01 4.156854249015711e-01 7.499999999999997e-01
4.949747464933467e-01 4.949747464933468e-01 7.499999999999997e-01
7.071067809042734e-01 7.071067809042736e-01 7.499999999999997e-01
6.010407639157730e-01 6.010407639157731e-01 4.999999999996251e-01
6.010407639157731e-01 6.010407639157731e-01 1.000000000000375e+00
6.010407639157727e-01 6.010407639157729e-01 7.499999999999998e-01
6.105822931924760e-01 3.423291730615980e-01 4.999999999996250e-01
7.000000000000000e-01 0.000000000000000e+00 4.999999999996251e-01
1.000000000000000e+00 0.000000000000000e+00 4.999999999996251e-01
8.722604189151506e-01 4.890416762415440e-01 4.999999999996250e-01
6.105822931924760e-01 3.423291730615980e-01 1.000000000000375e+00
7.000000000000000e-01 0.000000000000000e+00 1.000000000000375e+00
1.000000000000000e+00 0.000000000000000e+00 1.000000000000375e+00
8.722604189151506e-01 4.890416762415440e-01 1.000000000000375e+00
6.788334623669608e-01 1.708365599019088e-01 4.999999999996250e-01
8.500000000000001e-01 0.000000000000000e+00 4.999999999996251e-01
9.697620891119340e-01 2.440522288860949e-01 4.999999999996250e-01
7.414213561741365e-01 4.156854249015711e-01 4.999999999996250e-01
6.788334623669607e-01 1.708365599019088e-01 1.000000000000375e+00
8.500000000000000e-01 0.000000000000000e+00 1.000000000000375e+00
9.697620891119340e-01 2.440522288860948e-01 1.000000000000375e+00
7.414213561741364e-01 4.156854249015711e-01 1.000000000000375e+00
6.105822931924761e-01 3.423291730615982e-01 7.500000000000001e-01
7.000000000000001e-01 0.000000000000000e+00 7.500000000000000e-01
1.000000000000000e+00 0.000000000000000e+00 7.500000000000000e-01
8.722604189151506e-01 4.890416762415441e-01 7.500000000000001e-01
7.414213561741364e-01 4.156854249015711e-01 7.499999999999997e-01
8.500000000000001e-01 0.000000000000000e+00 7.499999999999999e-01
6.788334623669608e-01 1.708365599019088e-01 7.500000000000000e-01
9.697620891119342e-01 2.440522288860949e-01 7.500000000000000e-01
8.242977757679297e-01 2.074443945759666e-01 4.999999999996250e-01
8.242977757679298e-01 2.074443945759666e-01 1.000000000000375e+00
8.242977757679300e-01 2.074443945759665e-01 7.499999999999997e-01
0.000000000000000e+00 7.000000000000000e-01 1.000000000000375e+00
3.423291730615980e-01 6.105822931924760e-01 1.000000000000375e+00
4.890416762415440e-01 8.722604189151505e-01 1.000000000000375e+00
0.000000000000000e+00 1.000000000000000e+00 1.000000000000375e+00
0.000000000000000e+00 7.000000000000000e-01 1.500000000000000e+00
3.423291730615980e-01 6.105822931924760e-01 1.500000000000000e+00
4.890416762415440e-01 8.722604189151504e-01 1.500000000000000e+00
0.000000000000000e+00 1.000000000000000e+00 1.500000000000000e+00
1.708365599019088e-01 6.788334623669608e-01 1.000000000000375e+00
4.156854249015710e-01 7.414213561741364e-01 1.000000000000375e+00
2.440522288860949e-01 9.697620891119340e-01 1.000000000000375e+00
0.000000000000000e+00 8.500000000000000e-01 1.000000000000375e+00
1.708365599019088e-01 6.788334623669607e-01 1.500000000000000e+00
4.156854249015710e-01 7.414213561741364e-01 1.500000000000000e+00
2.440522288860949e-01 9.697620891119340e-01 1.500000000000000e+00
0.000000000000000e+00 8.500000000000000e-01 1.500000000000000e+00
0.000000000000000e+00 7.000000000000000e-01 1.250000000000094e+00
3.423291730615980e-01 6.105822931924760e-01 1.250000000000094e+00
4.890416762415440e-01 8.722604189151505e-01 1.250000000000094e+00
0.000000000000000e+00 1.000000000000000e+00 1.250000000000094e+00
0.000000000000000e+00 8.499999999999999e-01 1.250000000000094e+00
4.156854249015712e-01 7.414213561741364e-01 1.250000000000094e+00
1.708365599019088e-01 6.788334623669608e-01 1.250000000000094e+00
2.440522288860949e-01 9.697620891119341e-01 1.250000000000094e+00
2.074443945759666e-01 8.242977757679297e-01 1.000000000000375e+00
2.074443945759666e-01 8.242977757679297e-01 1.500000000000000e+00
2.074443945759666e-01 8.242977757679300e-01 1.250000000000094e+00
3.423291730615980e-01 6.105822931924760e-01 1.000000000000375e+00
6.105822931924760e-01 3.423291730615980e-01 1.000000000000375e+00
8.722604189151506e-01 4.890416762415440e-01 1.000000000000375e+00
4.890416762415440e-01 8.722604189151505e-01 1.000000000000375e+00
3.423291730615980e-01 6.105822931924760e-01 1.500000000000000e+00
6.105822931924760e-01 3.423291730615980e-01 1.500000000000000e+00
8.722604189151504e-01 4.890416762415440e-01 1.500000000000000e+00
4.890416762415440e-01 8.722604189151504e-01 1.500000000000000e+00
4.949747464933468e-01 4.949747464933469e-01 1.000000000000375e+00
7.414213561741364e-01 4.156854249015711e-01 1.000000000000375e+00
7.071067809042735e-01 7.071067809042736e-01 1.000000000000375e+00
4.156854249015710e-01 7.414213561741364e-01 1.000000000000375e+00
4.949747464933467e-01 4.949747464933468e-01 1.500000000000000e+00
7.414213561741367e-01 4.156854249015711e-01 1.500000000000000e+00
7.071067809042735e-01 7.071067809042735e-01 1.500000000000000e+00
4.156854249015710e-01 7.414213561741364e-01 1.500000000000000e+00
3.423291730615980e-01 6.105822931924760e-01 1.250000000000094e+00
6.105822931924760e-01 3.423291730615981e-01 1.250000000000094e+00
8.722604189151507e-01 4.890416762415442e-01 1.250000000000094e+00
4.890416762415440e-01 8.722604189151505e-01 1.250000000000094e+00
4.156854249015712e-01 7.414213561741364e-01 1.250000000000094e+00
7.414213561741364e-01 4.156854249015711e-01 1.250000000000094e+00
4.949747464933469e-01 4.949747464933470e-01 1.250000000000094e+00
7.071067809042737e-01 7.071067809042736e-01 1.250000000000094e+00
6.010407639157731e-01 6.010407639157731e-01 1.000000000000375e+00
6.010407639157731e-01 6.010407639157732e-01 1.500000000000000e+00
6.010407639157731e-01 6.010407639157731e-01 1.250000000000094e+00
        </DataArray>
      </Points>

      <Cells>
        <DataArray type="Int32" Name="connectivity" format="ascii">
0 1 2 3 4 5 6 7 8 9 10 11 12 13 14 15 16 17 18 19 20 21 22 23 24 25 26 27 28 29 30 31 32 33 34 35 36 37 38 39 40 41 42 43 44 45 46 47 48 49 50 51 52 53 54 55 56 57 58 59 60 61 62 63 64 65 66 67 68 69 70 71 72 73 74 75 76 77 78 79 80 81 82 83 84 85 86 87 88 89 90 91 92 93 94 95 96 97 98 99 100 101 102 103 104 105 106 107 108 109 110 111 112 113 114 115 116 117 118 119 120 121 122 123 124 125 126 127 128 129 130 131 132 133 134 135 136 137 138 139 140 141 142 143 144 145 146 147 148 149 150 151 152 153 154 155 156 157 158 159 160 161 162 163 164 165 166 167 168 169 170 171 172 173 174 175 176 177 178 179 180 181 182 183 184 185 186 187 188 189 190 191 192 193 194 195 196 197 198 199 200 201 202 203 204 205 206 207 208 209 210 211 212 213 214 215 
        </DataArray>
        <DataArray type="Int32" Name="offsets" format="ascii">
27 54 81 108 135 162 189 216 
        </DataArray>
        <DataArray type="UInt8" Name="types" format="ascii">
29 29 29 29 29 29 29 29 
        </DataArray>
      </Cells>

  <PointData>
        <DataArray type="Float64" Name="displacement" NumberOfComponents="3" format="ascii">
0.000000000000000e+00 0.000000000000000e+00 0.000000000000000e+00
7.938779392628531e-02 8.377556254578336e-02 2.931019150021793e-02
-3.218180976339538e-02 1.201628542034010e-01 1.275898928920657e-02
0.000000000000000e+00 0.000000000000000e+00 0.000000000000000e+00
0.000000000000000e+00 0.000000000000000e+00 0.000000000000000e+00
6.896685701899732e-02 9.402494775699212e-02 1.876175067719808e-02
-4.447569781138681e-02 1.316192120481911e-01 1.928511683426026e-02
0.000000000000000e+00 0.000000000000000e+00 0.000000000000000e+00
3.659072867052169e-02 2.406732773730217e-02 1.831827173247541e-02
2.384188486658759e-02 9.869169854141827e-02 2.001514166696655e-02
-2.578579875613074e-02 3.103380638819698e-02 1.740177915541022e-03
0.000000000000000e+00 0.000000000000000e+00 0.000000000000000e+00
3.067911031570076e-02 3.161847444246748e-02 8.498398735289805e-03
1.230741246397910e-02 1.090986647021423e-01 1.894077245456800e-02
-3.547066416177490e-02 4.102944936390862e-02 8.646139300434293e-03
0.000000000000000e+00 0.000000000000000e+00 0.000000000000000e+00
0.000000000000000e+00 0.000000000000000e+00 0.000000000000000e+00
7.274334243067206e-02 9.179972430378791e-02 2.150586116293288e-02
-4.022516988823870e-02 1.286686141511110e-01 1.705241584304484e-02
0.000000000000000e+00 0.000000000000000e+00 0.000000000000000e+00
0.000000000000000e+00 0.000000000000000e+00 0.000000000000000e+00
1.634144617685321e-02 1.066304345515577e-01 1.901636799670135e-02
3.241764750497827e-02 3.034560244101852e-02 1.067519340506690e-02
-3.220431038809072e-02 3.871313883197593e-02 6.338891357380401e-03
5.821165346223762e-03 2.390912352168746e-02 9.186094416073770e-03
-2.012150699249465e-03 3.209476676507646e-02 8.540904725822909e-03
4.405284128785867e-04 3.052079738949103e-02 8.342835115865633e-03
7.938779392628531e-02 8.377556254578336e-02 2.931019150021793e-02
2.116980451776023e-01 2.550226052601585e-01 4.019703014736771e-02
8.303383558312841e-02 3.787496612209913e-01 4.070936033731271e-02
-3.218180976339538e-02 1.201628542034010e-01 1.275898928920657e-02
6.896685701899732e-02 9.402494775699212e-02 1.876175067719808e-02
1.965164361447949e-01 2.595345500323326e-01 3.661005924614336e-02
7.063436463049613e-02 3.807909898015583e-01 4.199380272373792e-02
-4.447569781138681e-02 1.316192120481911e-01 1.928511683426026e-02
1.359043282431147e-01 1.671274406348148e-01 3.532913489374514e-02
1.473143926142332e-01 3.161795387789345e-01 3.987423032068117e-02
-2.866931527443703e-04 2.467726217909474e-01 2.800181620301485e-02
2.384188486658759e-02 9.869169854141827e-02 2.001514166696655e-02
1.224695812225676e-01 1.758171378020747e-01 2.885968161655725e-02
1.334419889082258e-01 3.193816197040535e-01 3.907237083768137e-02
-1.181465633335816e-02 2.540469626959031e-01 3.087228461722466e-02
1.230741246397910e-02 1.090986647021423e-01 1.894077245456800e-02
7.274334243067206e-02 9.179972430378791e-02 2.150586116293288e-02
2.034606116979217e-01 2.583903574220736e-01 3.820825126213283e-02
7.568871792175882e-02 3.807514002576401e-01 4.144468862821320e-02
-4.022516988823870e-02 1.286686141511110e-01 1.705241584304484e-02
1.634144617685321e-02 1.066304345515577e-01 1.901636799670135e-02
1.394731596807711e-01 3.187445035992874e-01 3.949888235972448e-02
1.281403303096352e-01 1.734941043771021e-01 3.111869604689046e-02
-7.545069944707747e-03 2.520195459141732e-01 2.980267865958010e-02
6.771022713844399e-02 2.056791487181294e-01 3.086707329428737e-02
5.497511168540817e-02 2.135931349281925e-01 2.971489928901408e-02
6.003834690714693e-02 2.113518858105138e-01 3.015228822143239e-02
2.116980451776023e-01 2.550226052601585e-01 4.019703014736771e-02
4.015810525634810e-01 3.752165516945298e-01 4.703268810111392e-02
3.427544856481834e-01 5.544164480518722e-01 5.730433823238133e-02
8.303383558312841e-02 3.787496612209913e-01 4.070936033731271e-02
1.965164361447949e-01 2.595345500323326e-01 3.661005924614336e-02
3.835033133120564e-01 3.730584071791305e-01 4.409617218295854e-02
3.265657076337274e-01 5.500901183129570e-01 5.427862129065011e-02
7.063436463049613e-02 3.807909898015583e-01 4.199380272373792e-02
3.024767690601602e-01 3.288631690350300e-01 4.400320917030329e-02
3.721620986745756e-01 4.649738931877908e-01 5.171620093914568e-02
2.038583370232641e-01 4.879706065305602e-01 5.041644889494804e-02
1.473143926142332e-01 3.161795387789345e-01 3.987423032068117e-02
2.860108338854099e-01 3.290362965657263e-01 4.162362077340637e-02
3.551264630225039e-01 4.617250193485360e-01 4.888724085401044e-02
1.896428727462602e-01 4.856454704395243e-01 5.029505315991518e-02
1.334419889082258e-01 3.193816197040535e-01 3.907237083768137e-02
2.034606116979217e-01 2.583903574220736e-01 3.820825126213283e-02
3.921230891139706e-01 3.745430705050629e-01 4.603422812038874e-02
3.340090724252105e-01 5.530182398464181e-01 5.575365801587336e-02
7.568871792175882e-02 3.807514002576401e-01 4.144468862821320e-02
1.394731596807711e-01 3.187445035992874e-01 3.949888235972448e-02
3.631021633321232e-01 4.639197656131460e-01 5.055995559995372e-02
2.938443705012083e-01 3.294469452210058e-01 4.297155824161008e-02
1.958862614696452e-01 4.875714232164273e-01 5.038187720700084e-02
2.532409516885987e-01 4.078611522255638e-01 4.676495207403215e-02
2.380044170226098e-01 4.066351108699224e-01 4.567242188472402e-02
2.449913770744510e-01 4.078256857547598e-01 4.634490274369674e-02
0.000000000000000e+00 0.000000000000000e+00 0.000000000000000e+00
6.896685701899732e-02 9.402494775699212e-02 1.876175067719808e-02
-4.447569781138681e-02 1.316192120481911e-01 1.928511683426026e-02
0.000000000000000e+00 0.000000000000000e+00 0.000000000000000e+00
0.000000000000000e+00 0.000000000000000e+00 0.000000000000000e+00
6.294165076052383e-02 9.248073039418425e-02 1.720358483810689e-02
-4.808499563491467e-02 1.312573786435139e-01 2.325235526963571e-02
0.000000000000000e+00 0.000000000000000e+00 0.000000000000000e+00
3.067911031570076e-02 3.161847444246748e-02 8.498398735289805e-03
1.230741246397910e-02 1.090986647021423e-01 1.894077245456800e-02
-3.547066416177490e-02 4.102944936390862e-02 8.646139300434293e-03
0.000000000000000e+00 0.000000000000000e+00 0.000000000000000e+00
2.821888688203750e-02 3.103381205543553e-02 7.988359460782489e-03
7.500624317061861e-03 1.085259537803687e-01 1.995920228127083e-02
-3.702787655131552e-02 4.197820985615274e-02 1.117580583680630e-02
0.000000000000000e+00 0.000000000000000e+00 0.000000000000000e+00
0.000000000000000e+00 0.000000000000000e+00 0.000000000000000e+00
6.628930426952268e-02 9.330177056669112e-02 1.826520893744511e-02
-4.655507817842253e-02 1.316152621329045e-01 2.087809554805792e-02
0.000000000000000e+00 0.000000000000000e+00 0.000000000000000e+00
0.000000000000000e+00 0.000000000000000e+00 0.000000000000000e+00
9.955299815024360e-03 1.088219755821021e-01 1.938837667221058e-02
2.980342185671189e-02 3.085739417086527e-02 8.649062496183111e-03
-3.670510468143573e-02 4.108403927497387e-02 9.859313531359611e-03
-2.012150699249465e-03 3.209476676507646e-02 8.540904725822909e-03
-3.928719735573160e-03 3.257178202590232e-02 9.370966758839033e-03
-2.985643059091616e-03 3.174157914501970e-02 9.107787266598008e-03
6.896685701899732e-02 9.402494775699212e-02 1.876175067719808e-02
1.965164361447949e-01 2.595345500323326e-01 3.661005924614336e-02
7.063436463049613e-02 3.807909898015583e-01 4.199380272373792e-02
-4.447569781138681e-02 1.316192120481911e-01 1.928511683426026e-02
6.294165076052383e-02 9.248073039418425e-02 1.720358483810689e-02
1.835446949382215e-01 2.543449984246265e-01 3.351959756726321e-02
6.158333367531862e-02 3.736863223268928e-01 4.543811154082735e-02
-4.808499563491467e-02 1.312573786435139e-01 2.325235526963571e-02
1.224695812225676e-01 1.758171378020747e-01 2.885968161655725e-02
1.334419889082258e-01 3.193816197040535e-01 3.907237083768137e-02
-1.181465633335816e-02 2.540469626959031e-01 3.087228461722466e-02
1.230741246397910e-02 1.090986647021423e-01 1.894077245456800e-02
1.126025474953722e-01 1.727637788579776e-01 2.623946418832222e-02
1.224146490351021e-01 3.134463646411780e-01 3.922379911112282e-02
-1.796174982133789e-02 2.506627308373819e-01 3.509151456098936e-02
7.500624317061861e-03 1.085259537803687e-01 1.995920228127083e-02
6.628930426952268e-02 9.330177056669112e-02 1.826520893744511e-02
1.901247275482171e-01 2.582533685476217e-01 3.513599453573785e-02
6.641712133859126e-02 3.785440803316669e-01 4.308288342692938e-02
-4.655507817842253e-02 1.316152621329045e-01 2.087809554805792e-02
9.955299815024360e-03 1.088219755821021e-01 1.938837667221058e-02
1.281220840938938e-01 3.177344018118207e-01 3.888418125474790e-02
1.176907604588309e-01 1.752044071992085e-01 2.756297614846032e-02
-1.473902529885422e-02 2.534097362867644e-01 3.227908095725902e-02
5.497511168540817e-02 2.135931349281925e-01 2.971489928901408e-02
4.688080300462273e-02 2.106922010520077e-01 3.041688718973566e-02
5.107207815672630e-02 2.131306540243099e-01 2.974105083309402e-02
1.965164361447949e-01 2.595345500323326e-01 3.661005924614336e-02
3.835033133120564e-01 3.730584071791305e-01 4.409617218295854e-02
3.265657076337274e-01 5.500901183129570e-01 5.427862129065011e-02
7.063436463049613e-02 3.807909898015583e-01 4.199380272373792e-02
1.835446949382215e-01 2.543449984246265e-01 3.351959756726321e-02
3.664393077709347e-01 3.640646718516555e-01 3.884257577679209e-02
3.114432698376464e-01 5.377491969895032e-01 5.383949691323250e-02
6.158333367531862e-02 3.736863223268928e-01 4.543811154082735e-02
2.860108338854099e-01 3.290362965657263e-01 4.162362077340637e-02
3.551264630225039e-01 4.617250193485360e-01 4.888724085401044e-02
1.896428727462602e-01 4.856454704395243e-01 5.029505315991518e-02
1.334419889082258e-01 3.193816197040535e-01 3.907237083768137e-02
2.706850366715546e-01 3.216895366671497e-01 3.787027227639968e-02
3.390668745257615e-01 4.511149772793717e-01 4.600423961194159e-02
1.775295150753627e-01 4.752550985003678e-01 5.208628870348477e-02
1.224146490351021e-01 3.134463646411780e-01 3.922379911112282e-02
1.901247275482171e-01 2.582533685476217e-01 3.513599453573785e-02
3.751369709377056e-01 3.698648461501763e-01 4.157884612352197e-02
3.193889278968279e-01 5.451583488833556e-01 5.345023270650311e-02
6.641712133859126e-02 3.785440803316669e-01 4.308288342692938e-02
1.281220840938938e-01 3.177344018118207e-01 3.888418125474790e-02
3.473947745017058e-01 4.576899810264442e-01 4.720101581883085e-02
2.784623317598242e-01 3.267456760531274e-01 3.993224328017295e-02
1.839250106743938e-01 4.817032087005871e-01 5.068638693247998e-02
2.380044170226098e-01 4.066351108699224e-01 4.567242188472402e-02
2.243548740769046e-01 3.978777158474517e-01 4.469173792359849e-02
2.314142049008298e-01 4.035616975683748e-01 4.502790258279574e-02
0.000000000000000e+00 0.000000000000000e+00 0.000000000000000e+00
6.294165076052383e-02 9.248073039418425e-02 1.720358483810689e-02
-4.808499563491467e-02 1.312573786435139e-01 2.325235526963571e-02
0.000000000000000e+00 0.000000000000000e+00 0.000000000000000e+00
0.000000000000000e+00 0.000000000000000e+00 0.000000000000000e+00
4.696518955380822e-02 7.475621405012554e-02 9.123687659094090e-03
-6.177298822350721e-02 1.145913586840643e-01 3.480479316652209e-02
0.000000000000000e+00 0.000000000000000e+00 0.000000000000000e+00
2.821888688203750e-02 3.103381205543553e-02 7.988359460782489e-03
7.500624317061861e-03 1.085259537803687e-01 1.995920228127083e-02
-3.702787655131552e-02 4.197820985615274e-02 1.117580583680630e-02
0.000000000000000e+00 0.000000000000000e+00 0.000000000000000e+00
1.829129068898036e-02 1.827906012917522e-02 7.778574228151070e-04
-7.378582720920296e-03 9.224682754860455e-02 2.240274530783397e-02
-4.512435346969702e-02 3.098823357703666e-02 2.171818624759658e-02
0.000000000000000e+00 0.000000000000000e+00 0.000000000000000e+00
0.000000000000000e+00 0.000000000000000e+00 0.000000000000000e+00
5.710618351446999e-02 8.761461547636597e-02 1.451152790379027e-02
-5.213458678267109e-02 1.268234485154309e-01 2.752291485658709e-02
0.000000000000000e+00 0.000000000000000e+00 0.000000000000000e+00
0.000000000000000e+00 0.000000000000000e+00 0.000000000000000e+00
2.527844096336901e-03 1.043033281511382e-01 2.088630619029522e-02
2.476750871751755e-02 2.816770755519773e-02 5.652540734518449e-03
-3.898546455340573e-02 3.988769624448959e-02 1.449547661085551e-02
-3.928719735573160e-03 3.257178202590232e-02 9.370966758839033e-03
-1.286860425070058e-02 2.178833260090950e-02 1.182281480197532e-02
-6.627625281754244e-03 3.058686873532814e-02 1.003959275360993e-02
6.294165076052383e-02 9.248073039418425e-02 1.720358483810689e-02
1.835446949382215e-01 2.543449984246265e-01 3.351959756726321e-02
6.158333367531862e-02 3.736863223268928e-01 4.543811154082735e-02
-4.808499563491467e-02 1.312573786435139e-01 2.325235526963571e-02
4.696518955380822e-02 7.475621405012554e-02 9.123687659094090e-03
1.629592728188448e-01 2.359344146863549e-01 2.900404327191096e-02
4.225318117521865e-02 3.542081865236566e-01 5.089110926653830e-02
-6.177298822350721e-02 1.145913586840643e-01 3.480479316652209e-02
1.126025474953722e-01 1.727637788579776e-01 2.623946418832222e-02
1.224146490351021e-01 3.134463646411780e-01 3.922379911112282e-02
-1.796174982133789e-02 2.506627308373819e-01 3.509151456098936e-02
7.500624317061861e-03 1.085259537803687e-01 1.995920228127083e-02
9.362115843728905e-02 1.547071347002848e-01 2.049849664194976e-02
1.023684918254248e-01 2.945471954699457e-01 3.971223286715794e-02
-3.509594674764854e-02 2.320527756632230e-01 4.279347131889202e-02
-7.378582720920296e-03 9.224682754860455e-02 2.240274530783397e-02
5.710618351446999e-02 8.761461547636597e-02 1.451152790379027e-02
1.750612421000351e-01 2.471313702689979e-01 3.154692744467308e-02
5.417976562582309e-02 3.657351972399853e-01 4.829551188187622e-02
-5.213458678267109e-02 1.268234485154309e-01 2.752291485658709e-02
2.527844096336901e-03 1.043033281511382e-01 2.088630619029522e-02
1.144525096421809e-01 3.059173489434547e-01 3.964766833814524e-02