<?xml version="1.0" ?> 
<!-- 
# vtk DataFile Version 3.0
-->
<VTKFile type="UnstructuredGrid" version="0.1" compressor="vtkZLibDataCompressor" byte_order="LittleEndian">
  <UnstructuredGrid>
    <FieldData>
      <DataArray type="Float64" Name="TIME" NumberOfTuples="1" format="ascii">
3.000000000000000e+00 
      </DataArray>
    </FieldData>

    <Piece NumberOfPoints="81" NumberOfCells="3" >
      <Points>
        <DataArray type="Float64" NumberOfComponents="3" format="ascii">
6.105822931924760e-01 3.423291730615980e-01 1.000000000000375e+00
7.000000000000000e-01 0.000000000000000e+00 1.000000000000375e+00
1.000000000000000e+00 0.000000000000000e+00 1.000000000000375e+00
8.722604189151506e-01 4.890416762415440e-01 1.000000000000375e+00
6.105822931924760e-01 3.423291730615980e-01 1.500000000000000e+00
7.000000000000000e-01 0.000000000000000e+00 1.500000000000000e+00
1.000000000000000e+00 0.000000000000000e+00 1.500000000000000e+00
8.722604189151504e-01 4.890416762415440e-01 1.500000000000000e+00
6.788334623669607e-01 1.708365599019088e-01 1.000000000000375e+00
8.500000000000000e-01 0.000000000000000e+00 1.000000000000375e+00
9.697620891119340e-01 2.440522288860948e-01 1.000000000000375e+00
7.414213561741364e-01 4.156854249015711e-01 1.000000000000375e+00
6.788334623669608e-01 1.708365599019088e-01 1.500000000000000e+00
8.500000000000000e-01 0.000000000000000e+00 1.500000000000000e+00
9.697620891119342e-01 2.440522288860949e-01 1.500000000000000e+00
7.414213561741367e-01 4.156854249015711e-01 1.500000000000000e+00
6.105822931924760e-01 3.423291730615981e-01 1.250000000000094e+00
7.000000000000000e-01 0.000000000000000e+00 1.250000000000094e+00
1.000000000000000e+00 0.000000000000000e+00 1.250000000000094e+00
8.722604189151507e-01 4.890416762415442e-01 1.250000000000094e+00
7.414213561741364e-01 4.156854249015711e-01 1.250000000000094e+00
8.499999999999999e-01 0.000000000000000e+00 1.250000000000094e+00
6.788334623669607e-01 1.708365599019088e-01 1.250000000000094e+00
9.697620891119341e-01 2.440522288860949e-01 1.250000000000094e+00
8.242977757679298e-01 2.074443945759666e-01 1.000000000000375e+00
8.242977757679298e-01 2.074443945759666e-01 1.500000000000000e+00
8.242977757679300e-01 2.074443945759666e-01 1.250000000000094e+00
0.000000000000000e+00 0.000000000000000e+00 2.500000000000000e+00
5.000000000000000e-01 0.000000000000000e+00 2.500000000000000e+00
5.000000000000000e-01 3.000000000000000e-01 2.500000000000000e+00
0.000000000000000e+00 3.000000000000000e-01 2.500000000000000e+00
0.000000000000000e+00 0.000000000000000e+00 3.000000000000000e+00
5.000000000000000e-01 0.000000000000000e+00 3.000000000000000e+00
5.000000000000000e-01 3.000000000000000e-01 3.000000000000000e+00
0.000000000000000e+00 3.000000000000000e-01 3.000000000000000e+00
2.500000000000000e-01 0.000000000000000e+00 2.500000000000000e+00
5.000000000000000e-01 1.500000000000000e-01 2.500000000000000e+00
2.500000000000000e-01 3.000000000000000e-01 2.500000000000000e+00
0.000000000000000e+00 1.500000000000000e-01 2.500000000000000e+00
2.500000000000000e-01 0.000000000000000e+00 3.000000000000000e+00
5.000000000000000e-01 1.500000000000000e-01 3.000000000000000e+00
2.500000000000000e-01 3.000000000000000e-01 3.000000000000000e+00
0.000000000000000e+00 1.500000000000000e-01 3.000000000000000e+00
0.000000000000000e+00 0.000000000000000e+00 2.750000000000000e+00
5.000000000000000e-01 0.000000000000000e+00 2.750000000000000e+00
5.000000000000000e-01 3.000000000000000e-01 2.750000000000000e+00
0.000000000000000e+00 3.000000000000000e-01 2.750000000000000e+00
0.000000000000000e+00 1.500000000000000e-01 2.750000000000000e+00
5.000000000000000e-01 1.500000000000000e-01 2.750000000000000e+00
2.500000000000000e-01 0.000000000000000e+00 2.750000000000000e+00
2.500000000000000e-01 3.000000000000000e-01 2.750000000000000e+00
2.500000000000000e-01 1.500000000000000e-01 2.500000000000000e+00
2.500000000000000e-01 1.500000000000000e-01 3.000000000000000e+00
2.500000000000000e-01 1.500000000000000e-01 2.750000000000000e+00
0.000000000000000e+00 0.000000000000000e+00 3.000000000000000e+00
5.000000000000000e-01 0.000000000000000e+00 3.000000000000000e+00
5.000000000000000e-01 3.000000000000000e-01 3.000000000000000e+00
0.000000000000000e+00 3.000000000000000e-01 3.000000000000000e+00
0.000000000000000e+00 0.000000000000000e+00 3.500000000000000e+00
5.000000000000000e-01 0.000000000000000e+00 3.500000000000000e+00
5.000000000000000e-01 3.000000000000000e-01 3.500000000000000e+00
0.000000000000000e+00 3.000000000000000e-01 3.500000000000000e+00
2.500000000000000e-01 0.000000000000000e+00 3.000000000000000e+00
5.000000000000000e-01 1.500000000000000e-01 3.000000000000000e+00
2.500000000000000e-01 3.000000000000000e-01 3.000000000000000e+00
0.000000000000000e+00 1.500000000000000e-01 3.000000000000000e+00
2.500000000000000e-01 0.000000000000000e+00 3.500000000000000e+00
5.000000000000000e-01 1.500000000000000e-01 3.500000000000000e+00
2.500000000000000e-01 3.000000000000000e-01 3.500000000000000e+00
0.000000000000000e+00 1.500000000000000e-01 3.500000000000000e+00
0.000000000000000e+00 0.000000000000000e+00 3.250000000000000e+00
5.000000000000000e-01 0.000000000000000e+00 3.250000000000000e+00
5.000000000000000e-01 3.000000000000000e-01 3.250000000000000e+00
0.000000000000000e+00 3.000000000000000e-01 3.250000000000000e+00
0.000000000000000e+00 1.500000000000000e-01 3.250000000000000e+00
5.000000000000000e-01 1.500000000000000e-01 3.250000000000000e+00
2.500000000000000e-01 0.000000000000000e+00 3.250000000000000e+00
2.500000000000000e-01 3.000000000000000e-01 3.250000000000000e+00
2.500000000000000e-01 1.500000000000000e-01 3.000000000000000e+00
2.500000000000000e-01 1.500000000000000e-01 3.500000000000000e+00
2.500000000000000e-01 1.500000000000000e-01 3.250000000000000e+00
        </DataArray>
      </Points>

      <Cells>
        <DataArray type="Int32" Name="connectivity" format="ascii">
0 1 2 3 4 5 6 7 8 9 10 11 12 13 14 15 16 17 18 19 20 21 22 23 24 25 26 27 28 29 30 31 32 33 34 35 36 37 38 39 40 41 42 43 44 45 46 47 48 49 50 51 52 53 54 55 56 57 58 59 60 61 62 63 64 65 66 67 68 69 70 71 72 73 74 75 76 77 78 79 80 
        </DataArray>
        <DataArray type="Int32" Name="offsets" format="ascii">
27 54 81 
        </DataArray>
        <DataArray type="UInt8" Name="types" format="ascii">
29 29 29 
        </DataArray>
      </Cells>

  <PointData>
        <DataArray type="Float64" Name="displacement" NumberOfComponents="3" format="ascii">
1.835446949382215e-01 2.543449984246265e-01 3.351959756726321e-02
3.664393077709347e-01 3.640646718516555e-01 3.884257577679209e-02
3.114432698376464e-01 5.377491969895032e-01 5.383949691323250e-02
6.158333367531862e-02 3.736863223268928e-01 4.543811154082735e-02
1.629592728188448e-01 2.359344146863549e-01 2.900404327191096e-02
3.443522209808634e-01 3.452560667019859e-01 3.445727676827897e-02
2.899930593999068e-01 5.163857418021905e-01 5.458785932342850e-02
4.225318117521865e-02 3.542081865236566e-01 5.089110926653830e-02
2.706850366715546e-01 3.216895366671497e-01 3.787027227639968e-02
3.390668745257615e-01 4.511149772793717e-01 4.600423961194159e-02
1.775295150753627e-01 4.752550985003678e-01 5.208628870348477e-02
1.224146490351021e-01 3.134463646411780e-01 3.922379911112282e-02
2.492915768300843e-01 3.030041752288517e-01 3.368502185879409e-02
3.171287044454008e-01 4.310477850444745e-01 4.432242685032955e-02
1.569176248428127e-01 4.551228919747782e-01 5.561317587296839e-02
1.023684918254248e-01 2.945471954699457e-01 3.971223286715794e-02
1.750612421000351e-01 2.471313702689979e-01 3.154692744467308e-02
3.564858742919396e-01 3.558107800975967e-01 3.632337977947982e-02
3.019156686180628e-01 5.280844116296989e-01 5.452563281686380e-02
5.417976562582309e-02 3.657351972399853e-01 4.829551188187622e-02
1.144525096421809e-01 3.059173489434547e-01 3.964766833814524e-02
3.292693291539255e-01 4.421756859908777e-01 4.510776052516795e-02
2.613908259263932e-01 3.137987468962513e-01 3.570032579248007e-02
1.690093863359287e-01 4.663715296535519e-01 5.392010338096524e-02
2.243548740769046e-01 3.978777158474517e-01 4.469173792359849e-02
2.033292293626115e-01 3.785321356862685e-01 4.437187422152916e-02
2.154515178108434e-01 3.895466878418609e-01 4.452077832916557e-02
0.000000000000000e+00 0.000000000000000e+00 0.000000000000000e+00
5.192731928933225e-02 2.737871279056199e-01 5.318249674883534e-02
-1.258979604079682e-01 2.052400014232733e-01 6.180921382179696e-02
0.000000000000000e+00 0.000000000000000e+00 0.000000000000000e+00
0.000000000000000e+00 0.000000000000000e+00 0.000000000000000e+00
3.201599947971150e-02 2.009583690204111e-01 2.901306837747385e-02
-1.324435968456985e-01 1.480844792537480e-01 6.805285079788100e-02
0.000000000000000e+00 0.000000000000000e+00 0.000000000000000e+00
5.487438123398231e-02 1.062024774154788e-01 2.564054066059454e-02
-3.532035872868655e-02 2.358274834063859e-01 5.771174225546679e-02
-5.419481604345209e-02 7.386963332829523e-02 2.012775320625202e-02
0.000000000000000e+00 0.000000000000000e+00 0.000000000000000e+00
3.432253997783372e-02 6.854403164848920e-02 7.323072459729588e-03
-4.853162956547601e-02 1.705477308047195e-01 4.831906401952349e-02
-6.315349339358507e-02 5.051082152479178e-02 3.115495439710093e-02
0.000000000000000e+00 0.000000000000000e+00 0.000000000000000e+00
0.000000000000000e+00 0.000000000000000e+00 0.000000000000000e+00
3.942104937022438e-02 2.406410105366979e-01 3.863379160849948e-02
-1.379115498898697e-01 1.774628563758380e-01 6.489154030776380e-02
0.000000000000000e+00 0.000000000000000e+00 0.000000000000000e+00
0.000000000000000e+00 0.000000000000000e+00 0.000000000000000e+00
-4.741911263796153e-02 2.051045034181570e-01 5.191039984118787e-02
4.292137232363644e-02 8.987474351204539e-02 1.341304665918721e-02
-6.735369852328479e-02 6.364327672163367e-02 2.656224413877402e-02
1.328550888862827e-03 8.475897618859818e-02 2.341149891698712e-02
-1.327742976689982e-02 5.447857802210807e-02 1.927971164738405e-02
-1.088242216445701e-02 7.135312055128169e-02 2.047001515194286e-02
0.000000000000000e+00 0.000000000000000e+00 0.000000000000000e+00
3.201599947971150e-02 2.009583690204111e-01 2.901306837747385e-02
-1.324435968456985e-01 1.480844792537480e-01 6.805285079788100e-02
0.000000000000000e+00 0.000000000000000e+00 0.000000000000000e+00
0.000000000000000e+00 0.000000000000000e+00 0.000000000000000e+00
2.421233102252851e-02 1.015245452194595e-01 1.045390835794619e-02
-1.166442367640059e-01 5.877048161995011e-02 7.702763694406524e-02
0.000000000000000e+00 0.000000000000000e+00 0.000000000000000e+00
3.432253997783372e-02 6.854403164848920e-02 7.323072459729588e-03
-4.853162956547601e-02 1.705477308047195e-01 4.831906401952349e-02
-6.315349339358507e-02 5.051082152479178e-02 3.115495439710093e-02
0.000000000000000e+00 0.000000000000000e+00 0.000000000000000e+00
1.760964582122638e-02 9.042183170094271e-03 -2.578582514579043e-03
-4.484094029480178e-02 7.687399550443871e-02 4.304478391923309e-02
-5.614512555328495e-02 -3.380079632977484e-04 4.343820428078472e-02
0.000000000000000e+00 0.000000000000000e+00 0.000000000000000e+00
0.000000000000000e+00 0.000000000000000e+00 0.000000000000000e+00
2.763786242730807e-02 1.546244612751887e-01 2.079491223440668e-02
-1.213893946716715e-01 1.106664832655899e-01 7.189694858052324e-02
0.000000000000000e+00 0.000000000000000e+00 0.000000000000000e+00
0.000000000000000e+00 0.000000000000000e+00 0.000000000000000e+00
-4.541865646612458e-02 1.288924625166285e-01 4.575732773177234e-02
2.668344440691630e-02 4.175246910708169e-02 3.337051566911047e-03
-5.496152696627708e-02 3.050586190680336e-02 3.606167682863656e-02
-1.327742976689982e-02 5.447857802210807e-02 1.927971164738405e-02
-1.850619607123819e-02 7.678715039409548e-04 2.019225177046777e-02
-1.332813378148656e-02 3.174645840501521e-02 1.935048999099694e-02
        </DataArray>
  </PointData>
  <CellData>
        <DataArray type="Float64" Name="element_ghosting" NumberOfComponents="3" format="ascii">
1.000000000000000e+00 0.000000000000000e+00 0.000000000000000e+00
0.000000000000000e+00 0.000000000000000e+00 1.000000000000000e+00
0.000000000000000e+00 0.000000000000000e+00 1.000000000000000e+00
        </DataArray>
        <DataArray type="Float64" Name="element_gid" format="ascii">
8.000000000000000e+00
9.000000000000000e+00
1.300000000000000e+01
        </DataArray>
        <DataArray type="Float64" Name="element_owner" format="ascii">
1.000000000000000e+00
1.000000000000000e+00
1.000000000000000e+00
        </DataArray>
      </CellData>

    </Piece>
  </UnstructuredGrid>
</VTKFile>
