<?xml version="1.0" ?> 
<!-- 
# vtk DataFile Version 3.0
-->
<VTKFile type="UnstructuredGrid" version="0.1" compressor="vtkZLibDataCompressor" byte_order="LittleEndian">
  <UnstructuredGrid>
    <FieldData>
      <DataArray type="Float64" Name="TIME" NumberOfTuples="1" format="ascii">
3.000000000000000e+00 
      </DataArray>
    </FieldData>

    <Piece NumberOfPoints="162" NumberOfCells="6" >
      <Points>
        <DataArray type="Float64" NumberOfComponents="3" format="ascii">
5.000000000000000e-01 0.000000000000000e+00 2.500000000000000e+00
1.000000000000000e+00 0.000000000000000e+00 2.500000000000000e+00
1.000000000000000e+00 3.000000000000000e-01 2.500000000000000e+00
5.000000000000000e-01 3.000000000000000e-01 2.500000000000000e+00
5.000000000000000e-01 0.000000000000000e+00 3.000000000000000e+00
1.000000000000000e+00 0.000000000000000e+00 3.000000000000000e+00
1.000000000000000e+00 3.000000000000000e-01 3.000000000000000e+00
5.000000000000000e-01 3.000000000000000e-01 3.000000000000000e+00
7.500000000000000e-01 0.000000000000000e+00 2.500000000000000e+00
1.000000000000000e+00 1.500000000000000e-01 2.500000000000000e+00
7.500000000000000e-01 2.999999999999999e-01 2.500000000000000e+00
5.000000000000000e-01 1.500000000000000e-01 2.500000000000000e+00
7.500000000000000e-01 0.000000000000000e+00 3.000000000000000e+00
1.000000000000000e+00 1.500000000000000e-01 3.000000000000000e+00
7.500000000000000e-01 2.999999999999999e-01 3.000000000000000e+00
5.000000000000000e-01 1.500000000000000e-01 3.000000000000000e+00
5.000000000000000e-01 0.000000000000000e+00 2.750000000000000e+00
1.000000000000000e+00 0.000000000000000e+00 2.750000000000000e+00
1.000000000000000e+00 3.000000000000000e-01 2.750000000000000e+00
5.000000000000000e-01 3.000000000000000e-01 2.750000000000000e+00
5.000000000000000e-01 1.500000000000000e-01 2.750000000000000e+00
1.000000000000000e+00 1.500000000000000e-01 2.750000000000000e+00
7.500000000000000e-01 0.000000000000000e+00 2.750000000000000e+00
7.500000000000000e-01 3.000000000000000e-01 2.750000000000000e+00
7.500000000000000e-01 1.500000000000000e-01 2.500000000000000e+00
7.500000000000000e-01 1.500000000000000e-01 3.000000000000000e+00
7.500000000000000e-01 1.499999999999999e-01 2.750000000000000e+00
1.000000000000000e+00 0.000000000000000e+00 2.500000000000000e+00
1.500000000000000e+00 0.000000000000000e+00 2.500000000000000e+00
1.500000000000000e+00 3.000000000000000e-01 2.500000000000000e+00
1.000000000000000e+00 3.000000000000000e-01 2.500000000000000e+00
1.000000000000000e+00 0.000000000000000e+00 3.000000000000000e+00
1.500000000000000e+00 0.000000000000000e+00 3.000000000000000e+00
1.500000000000000e+00 3.000000000000000e-01 3.000000000000000e+00
1.000000000000000e+00 3.000000000000000e-01 3.000000000000000e+00
1.250000000000000e+00 0.000000000000000e+00 2.500000000000000e+00
1.500000000000000e+00 1.500000000000000e-01 2.500000000000000e+00
1.250000000000000e+00 2.999999999999999e-01 2.500000000000000e+00
1.000000000000000e+00 1.500000000000000e-01 2.500000000000000e+00
1.250000000000000e+00 0.000000000000000e+00 3.000000000000000e+00
1.500000000000000e+00 1.500000000000000e-01 3.000000000000000e+00
1.250000000000000e+00 2.999999999999999e-01 3.000000000000000e+00
1.000000000000000e+00 1.500000000000000e-01 3.000000000000000e+00
1.000000000000000e+00 0.000000000000000e+00 2.750000000000000e+00
1.500000000000000e+00 0.000000000000000e+00 2.750000000000000e+00
1.500000000000000e+00 3.000000000000000e-01 2.750000000000000e+00
1.000000000000000e+00 3.000000000000000e-01 2.750000000000000e+00
1.000000000000000e+00 1.500000000000000e-01 2.750000000000000e+00
1.500000000000000e+00 1.500000000000000e-01 2.750000000000000e+00
1.250000000000000e+00 0.000000000000000e+00 2.750000000000000e+00
1.250000000000000e+00 3.000000000000000e-01 2.750000000000000e+00
1.250000000000000e+00 1.500000000000000e-01 2.500000000000000e+00
1.250000000000000e+00 1.500000000000000e-01 3.000000000000000e+00
1.250000000000000e+00 1.499999999999999e-01 2.750000000000000e+00
1.500000000000000e+00 0.000000000000000e+00 2.500000000000000e+00
2.000000000000000e+00 0.000000000000000e+00 2.500000000000000e+00
2.000000000000000e+00 3.000000000000000e-01 2.500000000000000e+00
1.500000000000000e+00 3.000000000000000e-01 2.500000000000000e+00
1.500000000000000e+00 0.000000000000000e+00 3.000000000000000e+00
2.000000000000000e+00 0.000000000000000e+00 3.000000000000000e+00
2.000000000000000e+00 3.000000000000000e-01 3.000000000000000e+00
1.500000000000000e+00 3.000000000000000e-01 3.000000000000000e+00
1.750000000000000e+00 0.000000000000000e+00 2.500000000000000e+00
2.000000000000000e+00 1.500000000000000e-01 2.500000000000000e+00
1.750000000000000e+00 3.000000000000000e-01 2.500000000000000e+00
1.500000000000000e+00 1.500000000000000e-01 2.500000000000000e+00
1.750000000000000e+00 0.000000000000000e+00 3.000000000000000e+00
2.000000000000000e+00 1.500000000000000e-01 3.000000000000000e+00
1.750000000000000e+00 2.999999999999999e-01 3.000000000000000e+00
1.500000000000000e+00 1.500000000000000e-01 3.000000000000000e+00
1.500000000000000e+00 0.000000000000000e+00 2.750000000000000e+00
2.000000000000000e+00 0.000000000000000e+00 2.750000000000000e+00
2.000000000000000e+00 3.000000000000000e-01 2.750000000000000e+00
1.500000000000000e+00 3.000000000000000e-01 2.750000000000000e+00
1.500000000000000e+00 1.500000000000000e-01 2.750000000000000e+00
2.000000000000000e+00 1.500000000000000e-01 2.750000000000000e+00
1.750000000000000e+00 0.000000000000000e+00 2.750000000000000e+00
1.750000000000000e+00 3.000000000000000e-01 2.750000000000000e+00
1.750000000000000e+00 1.500000000000000e-01 2.500000000000000e+00
1.750000000000000e+00 1.500000000000000e-01 3.000000000000000e+00
1.750000000000000e+00 1.500000000000000e-01 2.750000000000000e+00
5.000000000000000e-01 0.000000000000000e+00 3.000000000000000e+00
1.000000000000000e+00 0.000000000000000e+00 3.000000000000000e+00
1.000000000000000e+00 3.000000000000000e-01 3.000000000000000e+00
5.000000000000000e-01 3.000000000000000e-01 3.000000000000000e+00
5.000000000000000e-01 0.000000000000000e+00 3.500000000000000e+00
1.000000000000000e+00 0.000000000000000e+00 3.500000000000000e+00
1.000000000000000e+00 3.000000000000000e-01 3.500000000000000e+00
5.000000000000000e-01 3.000000000000000e-01 3.500000000000000e+00
7.500000000000000e-01 0.000000000000000e+00 3.000000000000000e+00
1.000000000000000e+00 1.500000000000000e-01 3.000000000000000e+00
7.500000000000000e-01 2.999999999999999e-01 3.000000000000000e+00
5.000000000000000e-01 1.500000000000000e-01 3.000000000000000e+00
7.500000000000000e-01 0.000000000000000e+00 3.500000000000000e+00
1.000000000000000e+00 1.500000000000000e-01 3.500000000000000e+00
7.500000000000000e-01 2.999999999999999e-01 3.500000000000000e+00
5.000000000000000e-01 1.500000000000000e-01 3.500000000000000e+00
5.000000000000000e-01 0.000000000000000e+00 3.250000000000000e+00
1.000000000000000e+00 0.000000000000000e+00 3.250000000000000e+00
1.000000000000000e+00 3.000000000000000e-01 3.250000000000000e+00
5.000000000000000e-01 3.000000000000000e-01 3.250000000000000e+00
5.000000000000000e-01 1.500000000000000e-01 3.250000000000000e+00
1.000000000000000e+00 1.500000000000000e-01 3.250000000000000e+00
7.500000000000000e-01 0.000000000000000e+00 3.250000000000000e+00
7.500000000000000e-01 3.000000000000000e-01 3.250000000000000e+00
7.500000000000000e-01 1.500000000000000e-01 3.000000000000000e+00
7.500000000000000e-01 1.500000000000000e-01 3.500000000000000e+00
7.500000000000000e-01 1.500000000000000e-01 3.250000000000000e+00
1.000000000000000e+00 0.000000000000000e+00 3.000000000000000e+00
1.500000000000000e+00 0.000000000000000e+00 3.000000000000000e+00
1.500000000000000e+00 3.000000000000000e-01 3.000000000000000e+00
1.000000000000000e+00 3.000000000000000e-01 3.000000000000000e+00
1.000000000000000e+00 0.000000000000000e+00 3.500000000000000e+00
1.500000000000000e+00 0.000000000000000e+00 3.500000000000000e+00
1.500000000000000e+00 3.000000000000000e-01 3.500000000000000e+00
1.000000000000000e+00 3.000000000000000e-01 3.500000000000000e+00
1.250000000000000e+00 0.000000000000000e+00 3.000000000000000e+00
1.500000000000000e+00 1.500000000000000e-01 3.000000000000000e+00
1.250000000000000e+00 2.999999999999999e-01 3.000000000000000e+00
1.000000000000000e+00 1.500000000000000e-01 3.000000000000000e+00
1.250000000000000e+00 0.000000000000000e+00 3.500000000000000e+00
1.500000000000000e+00 1.500000000000000e-01 3.500000000000000e+00
1.250000000000000e+00 2.999999999999999e-01 3.500000000000000e+00
1.000000000000000e+00 1.500000000000000e-01 3.500000000000000e+00
1.000000000000000e+00 0.000000000000000e+00 3.250000000000000e+00
1.500000000000000e+00 0.000000000000000e+00 3.250000000000000e+00
1.500000000000000e+00 3.000000000000000e-01 3.250000000000000e+00
1.000000000000000e+00 3.000000000000000e-01 3.250000000000000e+00
1.000000000000000e+00 1.500000000000000e-01 3.250000000000000e+00
1.500000000000000e+00 1.500000000000000e-01 3.250000000000000e+00
1.250000000000000e+00 0.000000000000000e+00 3.250000000000000e+00
1.250000000000000e+00 3.000000000000000e-01 3.250000000000000e+00
1.250000000000000e+00 1.500000000000000e-01 3.000000000000000e+00
1.250000000000000e+00 1.500000000000000e-01 3.500000000000000e+00
1.250000000000000e+00 1.500000000000000e-01 3.250000000000000e+00
1.500000000000000e+00 0.000000000000000e+00 3.000000000000000e+00
2.000000000000000e+00 0.000000000000000e+00 3.000000000000000e+00
2.000000000000000e+00 3.000000000000000e-01 3.000000000000000e+00
1.500000000000000e+00 3.000000000000000e-01 3.000000000000000e+00
1.500000000000000e+00 0.000000000000000e+00 3.500000000000000e+00
2.000000000000000e+00 0.000000000000000e+00 3.500000000000000e+00
2.000000000000000e+00 3.000000000000000e-01 3.500000000000000e+00
1.500000000000000e+00 3.000000000000000e-01 3.500000000000000e+00
1.750000000000000e+00 0.000000000000000e+00 3.000000000000000e+00
2.000000000000000e+00 1.500000000000000e-01 3.000000000000000e+00
1.750000000000000e+00 2.999999999999999e-01 3.000000000000000e+00
1.500000000000000e+00 1.500000000000000e-01 3.000000000000000e+00
1.750000000000000e+00 0.000000000000000e+00 3.500000000000000e+00
2.000000000000000e+00 1.500000000000000e-01 3.500000000000000e+00
1.750000000000000e+00 3.000000000000000e-01 3.500000000000000e+00
1.500000000000000e+00 1.500000000000000e-01 3.500000000000000e+00
1.500000000000000e+00 0.000000000000000e+00 3.250000000000000e+00
2.000000000000000e+00 0.000000000000000e+00 3.250000000000000e+00
2.000000000000000e+00 3.000000000000000e-01 3.250000000000000e+00
1.500000000000000e+00 3.000000000000000e-01 3.250000000000000e+00
1.500000000000000e+00 1.500000000000000e-01 3.250000000000000e+00
2.000000000000000e+00 1.500000000000000e-01 3.250000000000000e+00
1.750000000000000e+00 0.000000000000000e+00 3.250000000000000e+00
1.750000000000000e+00 3.000000000000000e-01 3.250000000000000e+00
1.750000000000000e+00 1.500000000000000e-01 3.000000000000000e+00
1.750000000000000e+00 1.500000000000000e-01 3.500000000000000e+00
1.750000000000000e+00 1.500000000000000e-01 3.250000000000000e+00
        </DataArray>
      </Points>

      <Cells>
        <DataArray type="Int32" Name="connectivity" format="ascii">
0 1 2 3 4 5 6 7 8 9 10 11 12 13 14 15 16 17 18 19 20 21 22 23 24 25 26 27 28 29 30 31 32 33 34 35 36 37 38 39 40 41 42 43 44 45 46 47 48 49 50 51 52 53 54 55 56 57 58 59 60 61 62 63 64 65 66 67 68 69 70 71 72 73 74 75 76 77 78 79 80 81 82 83 84 85 86 87 88 89 90 91 92 93 94 95 96 97 98 99 100 101 102 103 104 105 106 107 108 109 110 111 112 113 114 115 116 117 118 119 120 121 122 123 124 125 126 127 128 129 130 131 132 133 134 135 136 137 138 139 140 141 142 143 144 145 146 147 148 149 150 151 152 153 154 155 156 157 158 159 160 161 
        </DataArray>
        <DataArray type="Int32" Name="offsets" format="ascii">
27 54 81 108 135 162 
        </DataArray>
        <DataArray type="UInt8" Name="types" format="ascii">
29 29 29 29 29 29 
        </DataArray>
      </Cells>

  <PointData>
        <DataArray type="Float64" Name="displacement" NumberOfComponents="3" format="ascii">
5.192731928933225e-02 2.737871279056199e-01 5.318249674883534e-02
-8.008923362204962e-02 6.875954896067935e-01 1.291952703119947e-01
-3.166220847084892e-01 5.646483702748193e-01 1.708914774977477e-01
-1.258979604079682e-01 2.052400014232733e-01 6.180921382179696e-02
3.201599947971150e-02 2.009583690204111e-01 2.901306837747385e-02
-7.580587629707561e-02 5.668654251607645e-01 1.052273345963354e-01
-3.048521807826474e-01 4.522764835035377e-01 1.599309606998295e-01
-1.324435968456985e-01 1.480844792537480e-01 6.805285079788100e-02
2.994289294503665e-03 4.763770868446495e-01 8.643202204065713e-02
-1.973922093641676e-01 6.261443976250401e-01 1.496702081301675e-01
-2.138076457456225e-01 3.751524613753195e-01 1.153089369008804e-01
-3.532035872868655e-02 2.358274834063859e-01 5.771174225546679e-02
-5.250009832535351e-03 3.746098781723187e-01 6.250336375556505e-02
-1.894030545016527e-01 5.091405175448234e-01 1.322228784453344e-01
-2.117249470706244e-01 2.846850182317147e-01 1.109070619746779e-01
-4.853162956547601e-02 1.705477308047195e-01 4.831906401952349e-02
3.942104937022438e-02 2.406410105366979e-01 3.863379160849948e-02
-8.013368054364450e-02 6.288624497612844e-01 1.171969197398277e-01
-3.140563575986290e-01 5.080455859481777e-01 1.643621846068301e-01
-1.379115498898697e-01 1.774628563758380e-01 6.489154030776380e-02
-4.741911263796153e-02 2.051045034181570e-01 5.191039984118787e-02
-1.962091815607290e-01 5.683623089258772e-01 1.404741044391662e-01
-3.823218404210997e-03 4.283023847333225e-01 7.383687068851894e-02
-2.180277157111771e-01 3.295624043291677e-01 1.118656124745792e-01
-1.036571413229345e-01 4.255183483272407e-01 1.005736664987549e-01
-1.068707782067274e-01 3.286281475711771e-01 8.625460399323480e-02
-1.092985421826675e-01 3.783942118074231e-01 9.251411071963046e-02
-8.008923362204962e-02 6.875954896067935e-01 1.291952703119947e-01
-2.925778449493938e-01 1.107140116444139e+00 2.258712134280660e-01
-5.390474481319394e-01 9.670686622996261e-01 2.845772343972032e-01
-3.166220847084892e-01 5.646483702748193e-01 1.708914774977477e-01
-7.580587629707561e-02 5.668654251607645e-01 1.052273345963354e-01
-2.681915189935820e-01 9.679493934049685e-01 2.026601214129087e-01
-5.110103313089251e-01 8.324884669974559e-01 2.653719879286855e-01
-3.048521807826474e-01 4.522764835035377e-01 1.599309606998295e-01
-1.832907711425935e-01 9.002479586529806e-01 1.771243109715602e-01
-4.159446845980082e-01 1.036761560906424e+00 2.549743079728399e-01
-4.273618334520881e-01 7.648972599676342e-01 2.276248914004913e-01
-1.973922093641676e-01 6.261443976250401e-01 1.496702081301675e-01
-1.675026844915457e-01 7.679152001751730e-01 1.532559355865337e-01
-3.897022348164637e-01 8.998618635408523e-01 2.338149600516311e-01
-4.064168061420025e-01 6.388729435863929e-01 2.123455887567080e-01
-1.894030545016527e-01 5.091405175448234e-01 1.322228784453344e-01
-8.013368054364450e-02 6.288624497612844e-01 1.171969197398277e-01
-2.810173501021992e-01 1.037623045428096e+00 2.144184057027093e-01
-5.260240235893958e-01 8.994196547673615e-01 2.745410423449774e-01
-3.140563575986290e-01 5.080455859481777e-01 1.643621846068301e-01
-1.962091815607290e-01 5.683623089258772e-01 1.404741044391662e-01
-4.036519462610701e-01 9.681691385671292e-01 2.442843499227536e-01
-1.767763775942495e-01 8.345573038998024e-01 1.652215582490249e-01
-4.190407140565829e-01 7.017266023788986e-01 2.195358100988512e-01
-3.052474335549905e-01 8.318455091885221e-01 2.021031582535729e-01
-2.867922696412365e-01 7.026850273324510e-01 1.826132196925555e-01
-2.977829948831838e-01 7.674676620777144e-01 1.922457333801041e-01
-2.925778449493938e-01 1.107140116444139e+00 2.258712134280660e-01
-5.116249799765785e-01 1.508969492327637e+00 3.242873036276467e-01
-7.567043388420613e-01 1.369929922339296e+00 3.902383434091904e-01
-5.390474481319394e-01 9.670686622996261e-01 2.845772343972032e-01
-2.681915189935820e-01 9.679493934049685e-01 2.026601214129087e-01
-4.779992125548433e-01 1.364388576623728e+00 3.011340259384274e-01
-7.207903419073431e-01 1.227690702992455e+00 3.679722332899927e-01
-5.110103313089251e-01 8.324884669974559e-01 2.653719879286855e-01
-4.035045496811542e-01 1.309603461496835e+00 2.750531526554492e-01
-6.343764439848625e-01 1.439081243345371e+00 3.568517633091545e-01
-6.495409446334586e-01 1.169350306635334e+00 3.395234154220480e-01
-4.159446845980082e-01 1.036761560906424e+00 2.549743079728399e-01
-3.732358662118070e-01 1.166822390378403e+00 2.523245866665200e-01
-5.996202593304472e-01 1.295731041963831e+00 3.343721242562641e-01
-6.165093214938827e-01 1.029851553533789e+00 3.176881916337759e-01
-3.897022348164637e-01 8.998618635408523e-01 2.338149600516311e-01
-2.810173501021992e-01 1.037623045428096e+00 2.144184057027093e-01
-4.949512663441353e-01 1.436943847289364e+00 3.127899828227228e-01
-7.392319766292880e-01 1.298680300434744e+00 3.788559360562198e-01
-5.260240235893958e-01 8.994196547673615e-01 2.745410423449774e-01
-4.036519462610701e-01 9.681691385671292e-01 2.442843499227536e-01
-6.172635928896365e-01 1.367539002804579e+00 3.456507499101457e-01
-3.885208842809943e-01 1.238328838505003e+00 2.639027759456767e-01
-6.333174048844902e-01 1.099084351367874e+00 3.280802835843773e-01
-5.266117566792792e-01 1.239603242413716e+00 3.069887965655173e-01
-4.950169110414839e-01 1.098325657855991e+00 2.847579710602909e-01
-5.110631181210129e-01 1.168761373705594e+00 2.957120050913543e-01
3.201599947971150e-02 2.009583690204111e-01 2.901306837747385e-02
-7.580587629707561e-02 5.668654251607645e-01 1.052273345963354e-01
-3.048521807826474e-01 4.522764835035377e-01 1.599309606998295e-01
-1.324435968456985e-01 1.480844792537480e-01 6.805285079788100e-02
2.421233102252851e-02 1.015245452194595e-01 1.045390835794619e-02
-5.541027977067842e-02 4.322186547506023e-01 7.930014938612656e-02
-2.771356782725727e-01 3.222424191709558e-01 1.504261279625736e-01
-1.166442367640059e-01 5.877048161995011e-02 7.702763694406524e-02
-5.250009832535351e-03 3.746098781723187e-01 6.250336375556505e-02
-1.894030545016527e-01 5.091405175448234e-01 1.322228784453344e-01
-2.117249470706244e-01 2.846850182317147e-01 1.109070619746779e-01
-4.853162956547601e-02 1.705477308047195e-01 4.831906401952349e-02
4.856280769896783e-03 2.512992983467456e-01 3.808448239802997e-02
-1.652850567751127e-01 3.763746595267080e-01 1.141408565881996e-01
-1.881051491608671e-01 1.690543351859619e-01 1.097097831259565e-01
-4.484094029480178e-02 7.687399550443871e-02 4.304478391923309e-02
2.763786242730807e-02 1.546244612751887e-01 2.079491223440668e-02
-6.745001225015090e-02 5.013892240692114e-01 9.276793707920571e-02
-2.916613543206075e-01 3.920918366685726e-01 1.558636578079945e-01
-1.213893946716715e-01 1.106664832655899e-01 7.189694858052324e-02
-4.541865646612458e-02 1.288924625166285e-01 4.575732773177234e-02
-1.785647167265701e-01 4.459782316792947e-01 1.238129794084273e-01
-2.089153828491919e-03 3.155315288230042e-01 5.104730105450041e-02
-2.000379036213820e-01 2.335168221587246e-01 1.107496604941469e-01
-1.068707782067274e-01 3.286281475711771e-01 8.625460399323480e-02
-9.007647856474266e-02 2.086367866343941e-01 7.291013825543176e-02
-9.944103009934283e-02 2.730867932897512e-01 8.023874645876838e-02
-7.580587629707561e-02 5.668654251607645e-01 1.052273345963354e-01
-2.681915189935820e-01 9.679493934049685e-01 2.026601214129087e-01
-5.110103313089251e-01 8.324884669974559e-01 2.653719879286855e-01
-3.048521807826474e-01 4.522764835035377e-01 1.599309606998295e-01
-5.541027977067842e-02 4.322186547506023e-01 7.930014938612656e-02
-2.385454830286028e-01 8.254691622633563e-01 1.784246171583682e-01
-4.787310207283245e-01 6.919466015793485e-01 2.460719783531052e-01
-2.771356782725727e-01 3.222424191709558e-01 1.504261279625736e-01
-1.675026844915457e-01 7.679152001751730e-01 1.532559355865337e-01
-3.897022348164637e-01 8.998618635408523e-01 2.338149600516311e-01
-4.064168061420025e-01 6.388729435863929e-01 2.123455887567080e-01
-1.894030545016527e-01 5.091405175448234e-01 1.322228784453344e-01
-1.415549884274330e-01 6.287771106498619e-01 1.280853730602385e-01
-3.586805322987333e-01 7.584008102488542e-01 2.119205670984099e-01
-3.764421826210746e-01 5.019885643702965e-01 1.967043126421965e-01
-1.652850567751127e-01 3.763746595267080e-01 1.141408565881996e-01
-6.745001225015090e-02 5.013892240692114e-01 9.276793707920571e-02
-2.540507603826730e-01 8.974533643562310e-01 1.906457340632623e-01
-4.949360905890577e-01 7.640668616985662e-01 2.561792427356280e-01
-2.916613543206075e-01 3.920918366685726e-01 1.558636578079945e-01
-1.785647167265701e-01 4.459782316792947e-01 1.238129794084273e-01
-3.745577101878106e-01 8.304142495329686e-01 2.231618089225056e-01
-1.556890890355757e-01 6.995717636886679e-01 1.409647661387254e-01
-3.915354991747115e-01 5.733042690851732e-01 2.050648740468827e-01
-2.867922696412365e-01 7.026850273324510e-01 1.826132196925555e-01
-2.587314747463103e-01 5.647439040939910e-01 1.620424843812784e-01
-2.734001366539961e-01 6.357072322415902e-01 1.727105068174420e-01
-2.681915189935820e-01 9.679493934049685e-01 2.026601214129087e-01
-4.779992125548433e-01 1.364388576623728e+00 3.011340259384274e-01
-7.207903419073431e-01 1.227690702992455e+00 3.679722332899927e-01
-5.110103313089251e-01 8.324884669974559e-01 2.653719879286855e-01
-2.385454830286028e-01 8.254691622633563e-01 1.784246171583682e-01
-4.435376029813042e-01 1.218731135467619e+00 2.777694961019208e-01
-6.842534941548871e-01 1.083374375280203e+00 3.461914703427921e-01
-4.787310207283245e-01 6.919466015793485e-01 2.460719783531052e-01
-3.732358662118070e-01 1.166822390378403e+00 2.523245866665200e-01
-5.996202593304472e-01 1.295731041963831e+00 3.343721242562641e-01
-6.165093214938827e-01 1.029851553533789e+00 3.176881916337759e-01
-3.897022348164637e-01 8.998618635408523e-01 2.338149600516311e-01
-3.410002068034669e-01 1.022164080299728e+00 2.288189640493257e-01
-5.641166083516278e-01 1.150725734368732e+00 3.117336600473928e-01
-5.820016415782771e-01 8.873355366115160e-01 2.965580544638028e-01
-3.586805322987333e-01 7.584008102488542e-01 2.119205670984099e-01
-2.540507603826730e-01 8.974533643562310e-01 1.906457340632623e-01
-4.608381982276002e-01 1.291564174595042e+00 2.894252560173101e-01
-7.021929944809640e-01 1.156181828458813e+00 3.572098673167649e-01
-4.949360905890577e-01 7.640668616985662e-01 2.561792427356280e-01
-3.745577101878106e-01 8.304142495329686e-01 2.231618089225056e-01
-5.817900591901568e-01 1.223509304569692e+00 3.230537923133872e-01
-3.574591041578716e-01 1.094846632511742e+00 2.405521332302970e-01
-5.993322239092680e-01 9.598644397445223e-01 3.074723713377492e-01
-4.950169110414839e-01 1.098325657855991e+00 2.847579710602909e-01
-4.616397399834748e-01 9.546324097531501e-01 2.623069954252346e-01
-4.785251226069015e-01 1.027286026120110e+00 2.737488994967699e-01
        </DataArray>
  </PointData>
  <CellData>
        <DataArray type="Float64" Name="element_ghosting" NumberOfComponents="3" format="ascii">
0.000000000000000e+00 1.000000000000000e+00 0.000000000000000e+00
0.000000000000000e+00 0.000000000000000e+00 0.000000000000000e+00
0.000000000000000e+00 0.000000000000000e+00 0.000000000000000e+00
0.000000000000000e+00 1.000000000000000e+00 0.000000000000000e+00
0.000000000000000e+00 0.000000000000000e+00 0.000000000000000e+00
0.000000000000000e+00 0.000000000000000e+00 0.000000000000000e+00
        </DataArray>
        <DataArray type="Float64" Name="element_gid" format="ascii">
1.000000000000000e+01
1.100000000000000e+01
1.200000000000000e+01
1.400000000000000e+01
1.500000000000000e+01
1.600000000000000e+01
        </DataArray>
        <DataArray type="Float64" Name="element_owner" format="ascii">
2.000000000000000e+00
2.000000000000000e+00
2.000000000000000e+00
2.000000000000000e+00
2.000000000000000e+00
2.000000000000000e+00
        </DataArray>
      </CellData>

    </Piece>
  </UnstructuredGrid>
</VTKFile>
