<?xml version="1.0" ?> 
<!-- 
# vtk DataFile Version 3.0
-->
<VTKFile type="UnstructuredGrid" version="0.1" compressor="vtkZLibDataCompressor" byte_order="LittleEndian">
  <UnstructuredGrid>
    <FieldData>
      <DataArray type="Float64" Name="TIME" NumberOfTuples="1" format="ascii">
9.999999999999999e-01 
      </DataArray>
    </FieldData>

    <Piece NumberOfPoints="2108" NumberOfCells="527" >
      <Points>
        <DataArray type="Float64" NumberOfComponents="3" format="ascii">
1.875000000000001e-01 4.687499999999996e-01 0.000000000000000e+00
1.875000000000000e-01 4.999999999999997e-01 0.000000000000000e+00
1.562500000000000e-01 4.999999999999997e-01 0.000000000000000e+00
1.562500000000001e-01 4.687499999999999e-01 0.000000000000000e+00
2.187500000000000e-01 4.687499999999998e-01 0.000000000000000e+00
2.187500000000000e-01 4.999999999999996e-01 0.000000000000000e+00
1.875000000000000e-01 4.999999999999997e-01 0.000000000000000e+00
1.875000000000001e-01 4.687499999999996e-01 0.000000000000000e+00
2.500000000000001e-01 4.687499999999998e-01 0.000000000000000e+00
2.500000000000000e-01 4.999999999999997e-01 0.000000000000000e+00
2.187500000000000e-01 4.999999999999996e-01 0.000000000000000e+00
2.187500000000000e-01 4.687499999999998e-01 0.000000000000000e+00
2.812500000000001e-01 4.687499999999998e-01 0.000000000000000e+00
2.812499999999999e-01 4.999999999999999e-01 0.000000000000000e+00
2.500000000000000e-01 4.999999999999997e-01 0.000000000000000e+00
2.500000000000001e-01 4.687499999999998e-01 0.000000000000000e+00
3.125000000000000e-01 4.687500000000000e-01 0.000000000000000e+00
3.124999999999999e-01 4.999999999999999e-01 0.000000000000000e+00
2.812499999999999e-01 4.999999999999999e-01 0.000000000000000e+00
2.812500000000001e-01 4.687499999999998e-01 0.000000000000000e+00
3.437500000000002e-01 4.687500000000000e-01 0.000000000000000e+00
3.437500000000000e-01 5.000000000000000e-01 0.000000000000000e+00
3.124999999999999e-01 4.999999999999999e-01 0.000000000000000e+00
3.125000000000000e-01 4.687500000000000e-01 0.000000000000000e+00
3.750000000000000e-01 4.687499999999997e-01 0.000000000000000e+00
3.750000000000000e-01 4.999999999999997e-01 0.000000000000000e+00
3.437500000000000e-01 5.000000000000000e-01 0.000000000000000e+00
3.437500000000002e-01 4.687500000000000e-01 0.000000000000000e+00
4.062500000000000e-01 4.687499999999996e-01 0.000000000000000e+00
4.062499999999999e-01 4.999999999999997e-01 0.000000000000000e+00
3.750000000000000e-01 4.999999999999997e-01 0.000000000000000e+00
3.750000000000000e-01 4.687499999999997e-01 0.000000000000000e+00
4.374999999999999e-01 4.687499999999999e-01 0.000000000000000e+00
4.374999999999999e-01 4.999999999999997e-01 0.000000000000000e+00
4.062499999999999e-01 4.999999999999997e-01 0.000000000000000e+00
4.062500000000000e-01 4.687499999999996e-01 0.000000000000000e+00
4.687500000000002e-01 4.687500000000001e-01 0.000000000000000e+00
4.687500000000000e-01 4.999999999999997e-01 0.000000000000000e+00
4.374999999999999e-01 4.999999999999997e-01 0.000000000000000e+00
4.374999999999999e-01 4.687499999999999e-01 0.000000000000000e+00
4.999999999999999e-01 4.687499999999996e-01 0.000000000000000e+00
4.999999999999998e-01 5.000000000000000e-01 0.000000000000000e+00
4.687500000000000e-01 4.999999999999997e-01 0.000000000000000e+00
4.687500000000002e-01 4.687500000000001e-01 0.000000000000000e+00
5.312500000000002e-01 4.687499999999999e-01 0.000000000000000e+00
5.312500000000000e-01 4.999999999999997e-01 0.000000000000000e+00
4.999999999999998e-01 5.000000000000000e-01 0.000000000000000e+00
4.999999999999999e-01 4.687499999999996e-01 0.000000000000000e+00
5.625000000000000e-01 4.687499999999996e-01 0.000000000000000e+00
5.624999999999997e-01 5.000000000000000e-01 0.000000000000000e+00
5.312500000000000e-01 4.999999999999997e-01 0.000000000000000e+00
5.312500000000002e-01 4.687499999999999e-01 0.000000000000000e+00
5.937500000000000e-01 4.687499999999999e-01 0.000000000000000e+00
5.937499999999998e-01 5.000000000000000e-01 0.000000000000000e+00
5.624999999999997e-01 5.000000000000000e-01 0.000000000000000e+00
5.625000000000000e-01 4.687499999999996e-01 0.000000000000000e+00
6.250000000000002e-01 4.687499999999996e-01 0.000000000000000e+00
6.249999999999996e-01 4.999999999999996e-01 0.000000000000000e+00
5.937499999999998e-01 5.000000000000000e-01 0.000000000000000e+00
5.937500000000000e-01 4.687499999999999e-01 0.000000000000000e+00
6.562499999999998e-01 4.687499999999998e-01 0.000000000000000e+00
6.562499999999998e-01 4.999999999999999e-01 0.000000000000000e+00
6.249999999999996e-01 4.999999999999996e-01 0.000000000000000e+00
6.250000000000002e-01 4.687499999999996e-01 0.000000000000000e+00
6.875000000000000e-01 4.687499999999999e-01 0.000000000000000e+00
6.874999999999998e-01 4.999999999999997e-01 0.000000000000000e+00
6.562499999999998e-01 4.999999999999999e-01 0.000000000000000e+00
6.562499999999998e-01 4.687499999999998e-01 0.000000000000000e+00
7.187500000000002e-01 4.687500000000001e-01 0.000000000000000e+00
7.187499999999996e-01 4.999999999999997e-01 0.000000000000000e+00
6.874999999999998e-01 4.999999999999997e-01 0.000000000000000e+00
6.875000000000000e-01 4.687499999999999e-01 0.000000000000000e+00
7.499999999999998e-01 4.687499999999999e-01 0.000000000000000e+00
7.499999999999998e-01 4.999999999999999e-01 0.000000000000000e+00
7.187499999999996e-01 4.999999999999997e-01 0.000000000000000e+00
7.187500000000002e-01 4.687500000000001e-01 0.000000000000000e+00
7.812500000000002e-01 4.687499999999999e-01 0.000000000000000e+00
7.812500000000000e-01 5.000000000000000e-01 0.000000000000000e+00
7.499999999999998e-01 4.999999999999999e-01 0.000000000000000e+00
7.499999999999998e-01 4.687499999999999e-01 0.000000000000000e+00
8.124999999999998e-01 4.687499999999999e-01 0.000000000000000e+00
8.124999999999998e-01 4.999999999999997e-01 0.000000000000000e+00
7.812500000000000e-01 5.000000000000000e-01 0.000000000000000e+00
7.812500000000002e-01 4.687499999999999e-01 0.000000000000000e+00
8.437500000000000e-01 4.687499999999996e-01 0.000000000000000e+00
8.437499999999999e-01 5.000000000000000e-01 0.000000000000000e+00
8.124999999999998e-01 4.999999999999997e-01 0.000000000000000e+00
8.124999999999998e-01 4.687499999999999e-01 0.000000000000000e+00
1.562500000000000e-01 4.999999999999997e-01 0.000000000000000e+00
1.562500000000001e-01 5.312500000000000e-01 0.000000000000000e+00
1.250000000000000e-01 5.312500000000000e-01 0.000000000000000e+00
1.250000000000000e-01 5.000000000000000e-01 0.000000000000000e+00
1.875000000000000e-01 4.999999999999997e-01 0.000000000000000e+00
1.875000000000000e-01 5.312499999999998e-01 0.000000000000000e+00
1.562500000000001e-01 5.312500000000000e-01 0.000000000000000e+00
1.562500000000000e-01 4.999999999999997e-01 0.000000000000000e+00
2.187500000000000e-01 4.999999999999996e-01 0.000000000000000e+00
2.187500000000000e-01 5.312500000000000e-01 0.000000000000000e+00
1.875000000000000e-01 5.312499999999998e-01 0.000000000000000e+00
1.875000000000000e-01 4.999999999999997e-01 0.000000000000000e+00
2.500000000000000e-01 4.999999999999997e-01 0.000000000000000e+00
2.500000000000000e-01 5.312500000000000e-01 0.000000000000000e+00
2.187500000000000e-01 5.312500000000000e-01 0.000000000000000e+00
2.187500000000000e-01 4.999999999999996e-01 0.000000000000000e+00
2.812499999999999e-01 4.999999999999999e-01 0.000000000000000e+00
2.812500000000000e-01 5.312499999999998e-01 0.000000000000000e+00
2.500000000000000e-01 5.312500000000000e-01 0.000000000000000e+00
2.500000000000000e-01 4.999999999999997e-01 0.000000000000000e+00
3.124999999999999e-01 4.999999999999999e-01 0.000000000000000e+00
3.124999999999999e-01 5.312499999999998e-01 0.000000000000000e+00
2.812500000000000e-01 5.312499999999998e-01 0.000000000000000e+00
2.812499999999999e-01 4.999999999999999e-01 0.000000000000000e+00
3.437500000000000e-01 5.000000000000000e-01 0.000000000000000e+00
3.437500000000002e-01 5.312500000000000e-01 0.000000000000000e+00
3.124999999999999e-01 5.312499999999998e-01 0.000000000000000e+00
3.124999999999999e-01 4.999999999999999e-01 0.000000000000000e+00
3.750000000000000e-01 4.999999999999997e-01 0.000000000000000e+00
3.750000000000000e-01 5.312499999999998e-01 0.000000000000000e+00
3.437500000000002e-01 5.312500000000000e-01 0.000000000000000e+00
3.437500000000000e-01 5.000000000000000e-01 0.000000000000000e+00
4.062499999999999e-01 4.999999999999997e-01 0.000000000000000e+00
4.062499999999998e-01 5.312499999999998e-01 0.000000000000000e+00
3.750000000000000e-01 5.312499999999998e-01 0.000000000000000e+00
3.750000000000000e-01 4.999999999999997e-01 0.000000000000000e+00
4.374999999999999e-01 4.999999999999997e-01 0.000000000000000e+00
4.374999999999999e-01 5.312499999999997e-01 0.000000000000000e+00
4.062499999999998e-01 5.312499999999998e-01 0.000000000000000e+00
4.062499999999999e-01 4.999999999999997e-01 0.000000000000000e+00
4.687500000000000e-01 4.999999999999997e-01 0.000000000000000e+00
4.687499999999999e-01 5.312499999999998e-01 0.000000000000000e+00
4.374999999999999e-01 5.312499999999997e-01 0.000000000000000e+00
4.374999999999999e-01 4.999999999999997e-01 0.000000000000000e+00
4.999999999999998e-01 5.000000000000000e-01 0.000000000000000e+00
4.999999999999999e-01 5.312499999999998e-01 0.000000000000000e+00
4.687499999999999e-01 5.312499999999998e-01 0.000000000000000e+00
4.687500000000000e-01 4.999999999999997e-01 0.000000000000000e+00
5.312500000000000e-01 4.999999999999997e-01 0.000000000000000e+00
5.312500000000000e-01 5.312500000000001e-01 0.000000000000000e+00
4.999999999999999e-01 5.312499999999998e-01 0.000000000000000e+00
4.999999999999998e-01 5.000000000000000e-01 0.000000000000000e+00
5.624999999999997e-01 5.000000000000000e-01 0.000000000000000e+00
5.625000000000000e-01 5.312499999999998e-01 0.000000000000000e+00
5.312500000000000e-01 5.312500000000001e-01 0.000000000000000e+00
5.312500000000000e-01 4.999999999999997e-01 0.000000000000000e+00
[...]
  <PointData>
        <DataArray type="Float64" Name="displacement" NumberOfComponents="3" format="ascii">
1.124652213809610e-05 -2.009778650682509e-05 0.000000000000000e+00
1.094957939472681e-05 -1.991447106817160e-05 0.000000000000000e+00
9.167875401855941e-06 -1.584626249053077e-05 0.000000000000000e+00
9.353342713999898e-06 -1.580008646037121e-05 0.000000000000000e+00
1.305058208443027e-05 -2.484325478068783e-05 0.000000000000000e+00
1.263084531171665e-05 -2.434122771280193e-05 0.000000000000000e+00
1.094957939472681e-05 -1.991447106817160e-05 0.000000000000000e+00
1.124652213809610e-05 -2.009778650682509e-05 0.000000000000000e+00
1.472027766067303e-05 -3.001575238501934e-05 0.000000000000000e+00
1.417195291519908e-05 -2.910898348282895e-05 0.000000000000000e+00
1.263084531171665e-05 -2.434122771280193e-05 0.000000000000000e+00
1.305058208443027e-05 -2.484325478068783e-05 0.000000000000000e+00
1.621230226667064e-05 -3.557126017052688e-05 0.000000000000000e+00
1.553449137730723e-05 -3.417971482156426e-05 0.000000000000000e+00
1.417195291519908e-05 -2.910898348282895e-05 0.000000000000000e+00
1.472027766067303e-05 -3.001575238501934e-05 0.000000000000000e+00
1.748663587692243e-05 -4.144440982563180e-05 0.000000000000000e+00
1.668269097402091e-05 -3.949630909922582e-05 0.000000000000000e+00
1.553449137730723e-05 -3.417971482156426e-05 0.000000000000000e+00
1.621230226667064e-05 -3.557126017052688e-05 0.000000000000000e+00
1.850747686059345e-05 -4.755053911450752e-05 0.000000000000000e+00
1.758444794539424e-05 -4.498417104212601e-05 0.000000000000000e+00
1.668269097402091e-05 -3.949630909922582e-05 0.000000000000000e+00
1.748663587692243e-05 -4.144440982563180e-05 0.000000000000000e+00
1.924388404828745e-05 -5.378770249216752e-05 0.000000000000000e+00
1.821211900536519e-05 -5.055291666537020e-05 0.000000000000000e+00
1.758444794539424e-05 -4.498417104212601e-05 0.000000000000000e+00
1.850747686059345e-05 -4.755053911450752e-05 0.000000000000000e+00
1.967026422945835e-05 -6.003856028015173e-05 0.000000000000000e+00
1.854317696062194e-05 -5.609808229926148e-05 0.000000000000000e+00
1.821211900536519e-05 -5.055291666537020e-05 0.000000000000000e+00
1.924388404828745e-05 -5.378770249216752e-05 0.000000000000000e+00
1.976682764124978e-05 -6.617214558062629e-05 0.000000000000000e+00
1.856081733838225e-05 -6.150283342209519e-05 0.000000000000000e+00
1.854317696062194e-05 -5.609808229926148e-05 0.000000000000000e+00
1.967026422945835e-05 -6.003856028015173e-05 0.000000000000000e+00
1.952011337151288e-05 -7.204556486860585e-05 0.000000000000000e+00
1.825459470464315e-05 -6.663970620512758e-05 0.000000000000000e+00
1.856081733838225e-05 -6.150283342209519e-05 0.000000000000000e+00
1.976682764124978e-05 -6.617214558062629e-05 0.000000000000000e+00
1.892366609202536e-05 -7.750573091392082e-05 0.000000000000000e+00
1.762115145726277e-05 -7.137245402829511e-05 0.000000000000000e+00
1.825459470464315e-05 -6.663970620512758e-05 0.000000000000000e+00
1.952011337151288e-05 -7.204556486860585e-05 0.000000000000000e+00
1.797892692947634e-05 -8.239126327140575e-05 0.000000000000000e+00
1.666508296736983e-05 -7.555810408741323e-05 0.000000000000000e+00
1.762115145726277e-05 -7.137245402829511e-05 0.000000000000000e+00
1.892366609202536e-05 -7.750573091392082e-05 0.000000000000000e+00
1.669638084743886e-05 -8.653472794500166e-05 0.000000000000000e+00
1.539995946045473e-05 -7.904935722437577e-05 0.000000000000000e+00
1.666508296736983e-05 -7.555810408741323e-05 0.000000000000000e+00
1.797892692947634e-05 -8.239126327140575e-05 0.000000000000000e+00
1.509697330327601e-05 -8.976542466688763e-05 0.000000000000000e+00
1.384949330935527e-05 -8.169748589717035e-05 0.000000000000000e+00
1.539995946045473e-05 -7.904935722437577e-05 0.000000000000000e+00
1.669638084743886e-05 -8.653472794500166e-05 0.000000000000000e+00
1.321376146266088e-05 -9.191296094803888e-05 0.000000000000000e+00
1.204879647122164e-05 -8.335589501055458e-05 0.000000000000000e+00
1.384949330935527e-05 -8.169748589717035e-05 0.000000000000000e+00
1.509697330327601e-05 -8.976542466688763e-05 0.000000000000000e+00
1.109369291005709e-05 -9.281186170980864e-05 0.000000000000000e+00
1.004561469294064e-05 -8.388449783697111e-05 0.000000000000000e+00
1.204879647122164e-05 -8.335589501055458e-05 0.000000000000000e+00
1.321376146266088e-05 -9.191296094803888e-05 0.000000000000000e+00
8.799306644237666e-06 -9.230742947650157e-05 0.000000000000000e+00
7.901355671028392e-06 -8.315501114269108e-05 0.000000000000000e+00
1.004561469294064e-05 -8.388449783697111e-05 0.000000000000000e+00
1.109369291005709e-05 -9.281186170980864e-05 0.000000000000000e+00
6.410037417257736e-06 -9.026296756774066e-05 0.000000000000000e+00
5.691657652021496e-06 -8.105717741300420e-05 0.000000000000000e+00
7.901355671028392e-06 -8.315501114269108e-05 0.000000000000000e+00
8.799306644237666e-06 -9.230742947650157e-05 0.000000000000000e+00
4.022700146200166e-06 -8.656828913313784e-05 0.000000000000000e+00
3.506191091063389e-06 -7.750577222855814e-05 0.000000000000000e+00
5.691657652021496e-06 -8.105717741300420e-05 0.000000000000000e+00
6.410037417257736e-06 -9.026296756774066e-05 0.000000000000000e+00
1.750674436658717e-06 -8.114916003447861e-05 0.000000000000000e+00
1.447372608609124e-06 -7.244805975606953e-05 0.000000000000000e+00
3.506191091063389e-06 -7.750577222855814e-05 0.000000000000000e+00
4.022700146200166e-06 -8.656828913313784e-05 0.000000000000000e+00
-2.786577055151978e-07 -7.397699704186903e-05 0.000000000000000e+00
-3.722796396809481e-07 -6.587114589621313e-05 0.000000000000000e+00
1.447372608609124e-06 -7.244805975606953e-05 0.000000000000000e+00
1.750674436658717e-06 -8.114916003447861e-05 0.000000000000000e+00
-1.928515660502773e-06 -6.507783192202254e-05 0.000000000000000e+00
-1.834294316163393e-06 -5.780849112830615e-05 0.000000000000000e+00
-3.722796396809481e-07 -6.587114589621313e-05 0.000000000000000e+00
-2.786577055151978e-07 -7.397699704186903e-05 0.000000000000000e+00
9.167875401855941e-06 -1.584626249053077e-05 0.000000000000000e+00
8.910628852572308e-06 -1.565911160823935e-05 0.000000000000000e+00
7.167766698113137e-06 -1.210836623143769e-05 0.000000000000000e+00
7.325085186822814e-06 -1.213269811810278e-05 0.000000000000000e+00
1.094957939472681e-05 -1.991447106817160e-05 0.000000000000000e+00
1.057763788962626e-05 -1.948934773316473e-05 0.000000000000000e+00
8.910628852572308e-06 -1.565911160823935e-05 0.000000000000000e+00
9.167875401855941e-06 -1.584626249053077e-05 0.000000000000000e+00
1.263084531171665e-05 -2.434122771280193e-05 0.000000000000000e+00
1.213474222358080e-05 -2.360248421638388e-05 0.000000000000000e+00
1.057763788962626e-05 -1.948934773316473e-05 0.000000000000000e+00
1.094957939472681e-05 -1.991447106817160e-05 0.000000000000000e+00
1.417195291519908e-05 -2.910898348282895e-05 0.000000000000000e+00
1.354731142451624e-05 -2.798341608941937e-05 0.000000000000000e+00
1.213474222358080e-05 -2.360248421638388e-05 0.000000000000000e+00
1.263084531171665e-05 -2.434122771280193e-05 0.000000000000000e+00
1.553449137730723e-05 -3.417971482156426e-05 0.000000000000000e+00
1.478163844983234e-05 -3.259911976816129e-05 0.000000000000000e+00
1.354731142451624e-05 -2.798341608941937e-05 0.000000000000000e+00
1.417195291519908e-05 -2.910898348282895e-05 0.000000000000000e+00
1.668269097402091e-05 -3.949630909922582e-05 0.000000000000000e+00
1.580620573364385e-05 -3.739964844150684e-05 0.000000000000000e+00
1.478163844983234e-05 -3.259911976816129e-05 0.000000000000000e+00
1.553449137730723e-05 -3.417971482156426e-05 0.000000000000000e+00
1.758444794539424e-05 -4.498417104212601e-05 0.000000000000000e+00
1.659273007443288e-05 -4.231939572167246e-05 0.000000000000000e+00
1.580620573364385e-05 -3.739964844150684e-05 0.000000000000000e+00
1.668269097402091e-05 -3.949630909922582e-05 0.000000000000000e+00
1.821211900536519e-05 -5.055291666537020e-05 0.000000000000000e+00
1.711703049056758e-05 -4.727852619812160e-05 0.000000000000000e+00
1.659273007443288e-05 -4.231939572167246e-05 0.000000000000000e+00
1.758444794539424e-05 -4.498417104212601e-05 0.000000000000000e+00
1.854317696062194e-05 -5.609808229926148e-05 0.000000000000000e+00
1.735977823326251e-05 -5.218451122103340e-05 0.000000000000000e+00
1.711703049056758e-05 -4.727852619812160e-05 0.000000000000000e+00
1.821211900536519e-05 -5.055291666537020e-05 0.000000000000000e+00
1.856081733838225e-05 -6.150283342209519e-05 0.000000000000000e+00
1.730719095147465e-05 -5.693374955477813e-05 0.000000000000000e+00
1.735977823326251e-05 -5.218451122103340e-05 0.000000000000000e+00
1.854317696062194e-05 -5.609808229926148e-05 0.000000000000000e+00
1.825459470464315e-05 -6.663970620512758e-05 0.000000000000000e+00
1.695172688240449e-05 -6.141329048970701e-05 0.000000000000000e+00
1.730719095147465e-05 -5.693374955477813e-05 0.000000000000000e+00
1.856081733838225e-05 -6.150283342209519e-05 0.000000000000000e+00
1.762115145726277e-05 -7.137245402829511e-05 0.000000000000000e+00
1.629282267205400e-05 -6.550270950997062e-05 0.000000000000000e+00
1.695172688240449e-05 -6.141329048970701e-05 0.000000000000000e+00
1.825459470464315e-05 -6.663970620512758e-05 0.000000000000000e+00
1.666508296736983e-05 -7.555810408741323e-05 0.000000000000000e+00
1.533770126502207e-05 -6.907621316118627e-05 0.000000000000000e+00
1.629282267205400e-05 -6.550270950997062e-05 0.000000000000000e+00
1.762115145726277e-05 -7.137245402829511e-05 0.000000000000000e+00
1.539995946045473e-05 -7.904935722437577e-05 0.000000000000000e+00
1.410225386296961e-05 -7.200506968297972e-05 0.000000000000000e+00
1.533770126502207e-05 -6.907621316118627e-05 0.000000000000000e+00
1.666508296736983e-05 -7.555810408741323e-05 0.000000000000000e+00
1.384949330935527e-05 -8.169748589717035e-05 0.000000000000000e+00
1.261197088554043e-05 -7.416047306292281e-05 0.000000000000000e+00
1.410225386296961e-05 -7.200506968297972e-05 0.000000000000000e+00
1.539995946045473e-05 -7.904935722437577e-05 0.000000000000000e+00
1.204879647122164e-05 -8.335589501055458e-05 0.000000000000000e+00
1.090286006229939e-05 -7.541694593377564e-05 0.000000000000000e+00
1.261197088554043e-05 -7.416047306292281e-05 0.000000000000000e+00
1.384949330935527e-05 -8.169748589717035e-05 0.000000000000000e+00
1.004561469294064e-05 -8.388449783697111e-05 0.000000000000000e+00
9.022245907866108e-06 -7.565636458896050e-05 0.000000000000000e+00
1.090286006229939e-05 -7.541694593377564e-05 0.000000000000000e+00
1.204879647122164e-05 -8.335589501055458e-05 0.000000000000000e+00
7.901355671028392e-06 -8.315501114269108e-05 0.000000000000000e+00
7.029297890261369e-06 -7.477264006310702e-05 0.000000000000000e+00
9.022245907866108e-06 -7.565636458896050e-05 0.000000000000000e+00
1.004561469294064e-05 -8.388449783697111e-05 0.000000000000000e+00
5.691657652021496e-06 -8.105717741300420e-05 0.000000000000000e+00
4.995092951746429e-06 -7.267700746414155e-05 0.000000000000000e+00
7.029297890261369e-06 -7.477264006310702e-05 0.000000000000000e+00
7.901355671028392e-06 -8.315501114269108e-05 0.000000000000000e+00
3.506191091063389e-06 -7.750577222855814e-05 0.000000000000000e+00
3.001994116164353e-06 -6.930376192949330e-05 0.000000000000000e+00
4.995092951746429e-06 -7.267700746414155e-05 0.000000000000000e+00
5.691657652021496e-06 -8.105717741300420e-05 0.000000000000000e+00
1.447372608609124e-06 -7.244805975606953e-05 0.000000000000000e+00
1.142135015702479e-06 -6.461614315911910e-05 0.000000000000000e+00
3.001994116164353e-06 -6.930376192949330e-05 0.000000000000000e+00
3.506191091063389e-06 -7.750577222855814e-05 0.000000000000000e+00
-3.722796396809481e-07 -6.587114589621313e-05 0.000000000000000e+00
-4.851477300462745e-07 -5.861193155961390e-05 0.000000000000000e+00
1.142135015702479e-06 -6.461614315911910e-05 0.000000000000000e+00
1.447372608609124e-06 -7.244805975606953e-05 0.000000000000000e+00
-1.834294316163393e-06 -5.780849112830615e-05 0.000000000000000e+00
-1.776991762141617e-06 -5.132820651077514e-05 0.000000000000000e+00
-4.851477300462745e-07 -5.861193155961390e-05 0.000000000000000e+00
-3.722796396809481e-07 -6.587114589621313e-05 0.000000000000000e+00
-2.819848547512119e-06 -4.834473599941118e-05 0.000000000000000e+00
-2.631711456795627e-06 -4.284466291893958e-05 0.000000000000000e+00
-1.776991762141617e-06 -5.132820651077514e-05 0.000000000000000e+00
-1.834294316163393e-06 -5.780849112830615e-05 0.000000000000000e+00
-3.216535115183924e-06 -3.761800694116562e-05 0.000000000000000e+00
-2.954277978658220e-06 -3.328491204518813e-05 0.000000000000000e+00
-2.631711456795627e-06 -4.284466291893958e-05 0.000000000000000e+00
-2.819848547512119e-06 -4.834473599941118e-05 0.000000000000000e+00
1.779148301182086e-06 -2.824798002599232e-06 0.000000000000000e+00
1.763401161445924e-06 -2.835537970939257e-06 0.000000000000000e+00
0.000000000000000e+00 0.000000000000000e+00 0.000000000000000e+00
0.000000000000000e+00 0.000000000000000e+00 0.000000000000000e+00
3.577394685607505e-06 -5.739465079405884e-06 0.000000000000000e+00
3.519783498531489e-06 -5.727206885246640e-06 0.000000000000000e+00
1.763401161445924e-06 -2.835537970939257e-06 0.000000000000000e+00
1.779148301182086e-06 -2.824798002599232e-06 0.000000000000000e+00
5.380812930626301e-06 -8.815131830364797e-06 0.000000000000000e+00
5.257301116599000e-06 -8.734834055898548e-06 0.000000000000000e+00
3.519783498531489e-06 -5.727206885246640e-06 0.000000000000000e+00
3.577394685607505e-06 -5.739465079405884e-06 0.000000000000000e+00
7.167766698113137e-06 -1.210836623143769e-05 0.000000000000000e+00
6.957527656823603e-06 -1.190615432499252e-05 0.000000000000000e+00
5.257301116599000e-06 -8.734834055898548e-06 0.000000000000000e+00
5.380812930626301e-06 -8.815131830364797e-06 0.000000000000000e+00
8.910628852572308e-06 -1.565911160823935e-05 0.000000000000000e+00
8.596871344257259e-06 -1.527500526558288e-05 0.000000000000000e+00
6.957527656823603e-06 -1.190615432499252e-05 0.000000000000000e+00
7.167766698113137e-06 -1.210836623143769e-05 0.000000000000000e+00
1.057763788962626e-05 -1.948934773316473e-05 0.000000000000000e+00
1.014810296563198e-05 -1.886007439287271e-05 0.000000000000000e+00
8.596871344257259e-06 -1.527500526558288e-05 0.000000000000000e+00
8.910628852572308e-06 -1.565911160823935e-05 0.000000000000000e+00
1.213474222358080e-05 -2.360248421638388e-05 0.000000000000000e+00
1.158189478209927e-05 -2.266422223830438e-05 0.000000000000000e+00
1.014810296563198e-05 -1.886007439287271e-05 0.000000000000000e+00
1.057763788962626e-05 -1.948934773316473e-05 0.000000000000000e+00
1.354731142451624e-05 -2.798341608941937e-05 0.000000000000000e+00
1.286828506934006e-05 -2.667434917660314e-05 0.000000000000000e+00
1.158189478209927e-05 -2.266422223830438e-05 0.000000000000000e+00
1.213474222358080e-05 -2.360248421638388e-05 0.000000000000000e+00
1.478163844983234e-05 -3.259911976816129e-05 0.000000000000000e+00
1.397801067284637e-05 -3.086173353639843e-05 0.000000000000000e+00
1.286828506934006e-05 -2.667434917660314e-05 0.000000000000000e+00
1.354731142451624e-05 -2.798341608941937e-05 0.000000000000000e+00
1.580620573364385e-05 -3.739964844150684e-05 0.000000000000000e+00
1.488368130745583e-05 -3.518274876035428e-05 0.000000000000000e+00
1.397801067284637e-05 -3.086173353639843e-05 0.000000000000000e+00
1.478163844983234e-05 -3.259911976816129e-05 0.000000000000000e+00
1.659273007443288e-05 -4.231939572167246e-05 0.000000000000000e+00
1.556079779034872e-05 -3.957986768751313e-05 0.000000000000000e+00
1.488368130745583e-05 -3.518274876035428e-05 0.000000000000000e+00
1.580620573364385e-05 -3.739964844150684e-05 0.000000000000000e+00
1.711703049056758e-05 -4.727852619812160e-05 0.000000000000000e+00
1.598863767576597e-05 -4.398287795763401e-05 0.000000000000000e+00
1.556079779034872e-05 -3.957986768751313e-05 0.000000000000000e+00
1.659273007443288e-05 -4.231939572167246e-05 0.000000000000000e+00
1.735977823326251e-05 -5.218451122103340e-05 0.000000000000000e+00
1.615104412546406e-05 -4.831025797000739e-05 0.000000000000000e+00
1.598863767576597e-05 -4.398287795763401e-05 0.000000000000000e+00
1.711703049056758e-05 -4.727852619812160e-05 0.000000000000000e+00
1.730719095147465e-05 -5.693374955477813e-05 0.000000000000000e+00
1.603715759392271e-05 -5.247069197720005e-05 0.000000000000000e+00
1.615104412546406e-05 -4.831025797000739e-05 0.000000000000000e+00
1.735977823326251e-05 -5.218451122103340e-05 0.000000000000000e+00
1.695172688240449e-05 -6.141329048970701e-05 0.000000000000000e+00
1.564212635606237e-05 -5.636473140852843e-05 0.000000000000000e+00
1.603715759392271e-05 -5.247069197720005e-05 0.000000000000000e+00
1.730719095147465e-05 -5.693374955477813e-05 0.000000000000000e+00
1.629282267205400e-05 -6.550270950997062e-05 0.000000000000000e+00
1.496782244544859e-05 -5.988663462907608e-05 0.000000000000000e+00
1.564212635606237e-05 -5.636473140852843e-05 0.000000000000000e+00
1.695172688240449e-05 -6.141329048970701e-05 0.000000000000000e+00
1.533770126502207e-05 -6.907621316118627e-05 0.000000000000000e+00
1.402357504716808e-05 -6.292643727814322e-05 0.000000000000000e+00
1.496782244544859e-05 -5.988663462907608e-05 0.000000000000000e+00
1.629282267205400e-05 -6.550270950997062e-05 0.000000000000000e+00
1.410225386296961e-05 -7.200506968297972e-05 0.000000000000000e+00
1.282691400072018e-05 -6.537231845267032e-05 0.000000000000000e+00
1.402357504716808e-05 -6.292643727814322e-05 0.000000000000000e+00
1.533770126502207e-05 -6.907621316118627e-05 0.000000000000000e+00
1.261197088554043e-05 -7.416047306292281e-05 0.000000000000000e+00
1.140429174801289e-05 -6.711333202644881e-05 0.000000000000000e+00
1.282691400072018e-05 -6.537231845267032e-05 0.000000000000000e+00
1.410225386296961e-05 -7.200506968297972e-05 0.000000000000000e+00
1.090286006229939e-05 -7.541694593377564e-05 0.000000000000000e+00
9.791723217819368e-06 -6.804256407170986e-05 0.000000000000000e+00
1.140429174801289e-05 -6.711333202644881e-05 0.000000000000000e+00
1.261197088554043e-05 -7.416047306292281e-05 0.000000000000000e+00
9.022245907866108e-06 -7.565636458896050e-05 0.000000000000000e+00
8.035251557056093e-06 -6.806075275781531e-05 0.000000000000000e+00
9.791723217819368e-06 -6.804256407170986e-05 0.000000000000000e+00
1.090286006229939e-05 -7.541694593377564e-05 0.000000000000000e+00
7.029297890261369e-06 -7.477264006310702e-05 0.000000000000000e+00
6.191117253315036e-06 -6.708036271500061e-05 0.000000000000000e+00
8.035251557056093e-06 -6.806075275781531e-05 0.000000000000000e+00
9.022245907866108e-06 -7.565636458896050e-05 0.000000000000000e+00
4.995092951746429e-06 -7.267700746414155e-05 0.000000000000000e+00
4.325485460973516e-06 -6.503004025410023e-05 0.000000000000000e+00
6.191117253315036e-06 -6.708036271500061e-05 0.000000000000000e+00
7.029297890261369e-06 -7.477264006310702e-05 0.000000000000000e+00
3.001994116164353e-06 -6.930376192949330e-05 0.000000000000000e+00
2.513579551038636e-06 -6.185929173151827e-05 0.000000000000000e+00
4.325485460973516e-06 -6.503004025410023e-05 0.000000000000000e+00
4.995092951746429e-06 -7.267700746414155e-05 0.000000000000000e+00
1.142135015702479e-06 -6.461614315911910e-05 0.000000000000000e+00
8.380865548661569e-07 -5.754313316127223e-05 0.000000000000000e+00
2.513579551038636e-06 -6.185929173151827e-05 0.000000000000000e+00
3.001994116164353e-06 -6.930376192949330e-05 0.000000000000000e+00
-4.851477300462745e-07 -5.861193155961390e-05 0.000000000000000e+00
-6.132516836092368e-07 -5.208636933002924e-05 0.000000000000000e+00
8.380865548661569e-07 -5.754313316127223e-05 0.000000000000000e+00
1.142135015702479e-06 -6.461614315911910e-05 0.000000000000000e+00
-1.776991762141617e-06 -5.132820651077514e-05 0.000000000000000e+00
-1.750868506258095e-06 -4.552709391060068e-05 0.000000000000000e+00
-6.132516836092368e-07 -5.208636933002924e-05 0.000000000000000e+00
-4.851477300462745e-07 -5.861193155961390e-05 0.000000000000000e+00