<?xml version="1.0" ?> 
<!-- 
# vtk DataFile Version 3.0
-->
<VTKFile type="UnstructuredGrid" version="0.1" compressor="vtkZLibDataCompressor" byte_order="LittleEndian">
  <UnstructuredGrid>
    <FieldData>
      <DataArray type="Float64" Name="TIME" NumberOfTuples="1" format="ascii">
1.000000000000000e+00 
      </DataArray>
    </FieldData>

    <Piece NumberOfPoints="35" NumberOfCells="2" >
      <Points>
        <DataArray type="Float64" NumberOfComponents="3" format="ascii">
-5.000000000000000e-01 -5.000000000000000e-01 2.000000000000000e-01
5.000000000000000e-01 -5.000000000000000e-01 2.000000000000000e-01
5.000000000000000e-01 5.000000000000000e-01 2.000000000000000e-01
-5.000000000000000e-01 5.000000000000000e-01 2.000000000000000e-01
-5.000000000000000e-01 -5.000000000000000e-01 9.000000000000000e-01
5.000000000000000e-01 -5.000000000000000e-01 9.000000000000000e-01
5.000000000000000e-01 5.000000000000000e-01 9.000000000000000e-01
-5.000000000000000e-01 5.000000000000000e-01 9.000000000000000e-01
0.000000000000000e+00 -5.000000000000000e-01 2.000000000000000e-01
5.000000000000000e-01 0.000000000000000e+00 2.000000000000000e-01
0.000000000000000e+00 5.000000000000000e-01 2.000000000000000e-01
-5.000000000000000e-01 0.000000000000000e+00 2.000000000000000e-01
0.000000000000000e+00 -5.000000000000000e-01 9.000000000000000e-01
5.000000000000000e-01 0.000000000000000e+00 9.000000000000000e-01
0.000000000000000e+00 5.000000000000000e-01 9.000000000000000e-01
-5.000000000000000e-01 0.000000000000000e+00 9.000000000000000e-01
-5.000000000000000e-01 -5.000000000000000e-01 4.750000000000000e-01
5.000000000000000e-01 -5.000000000000000e-01 4.750000000000000e-01
5.000000000000000e-01 5.000000000000000e-01 4.750000000000000e-01
-5.000000000000000e-01 5.000000000000000e-01 4.750000000000000e-01
-5.000000000000000e-01 0.000000000000000e+00 4.750000000000000e-01
5.000000000000000e-01 0.000000000000000e+00 4.750000000000000e-01
0.000000000000000e+00 -5.000000000000000e-01 4.750000000000000e-01
0.000000000000000e+00 5.000000000000000e-01 4.750000000000000e-01
0.000000000000000e+00 0.000000000000000e+00 2.000000000000000e-01
0.000000000000000e+00 0.000000000000000e+00 9.000000000000001e-01
0.000000000000000e+00 0.000000000000000e+00 4.750000000000000e-01
-5.000000000000000e-01 -5.000000000000000e-01 5.000000000000000e-01
-5.000000000000000e-01 -5.000000000000000e-01 -5.000000000000000e-01
-5.000000000000000e-01 5.000000000000000e-01 -5.000000000000000e-01
-5.000000000000000e-01 5.000000000000000e-01 5.000000000000000e-01
5.000000000000000e-01 -5.000000000000000e-01 5.000000000000000e-01
5.000000000000000e-01 -5.000000000000000e-01 -5.000000000000000e-01
5.000000000000000e-01 5.000000000000000e-01 -5.000000000000000e-01
5.000000000000000e-01 5.000000000000000e-01 5.000000000000000e-01
        </DataArray>
      </Points>

      <Cells>
        <DataArray type="Int32" Name="connectivity" format="ascii">
0 1 2 3 4 5 6 7 8 9 10 11 12 13 14 15 16 17 18 19 20 21 22 23 24 25 26 27 28 29 30 31 32 33 34 
        </DataArray>
        <DataArray type="Int32" Name="offsets" format="ascii">
27 35 
        </DataArray>
        <DataArray type="UInt8" Name="types" format="ascii">
29 12 
        </DataArray>
      </Cells>

  <PointData>
        <DataArray type="Float64" Name="displacement" NumberOfComponents="3" format="ascii">
1.576740611362538e-15 1.738676500175872e-15 -8.578045362503148e-02
3.357066139516555e-02 1.655769582612805e-15 -8.578045362503121e-02
3.357066139516563e-02 3.357066139516571e-02 -8.578045362503103e-02
1.606490241851534e-15 3.357066139516576e-02 -8.578045362503160e-02
2.779588741231655e-15 3.387496776427194e-15 -1.705609072500437e-01
3.357066139516367e-02 3.218357471836673e-15 -1.705609072500433e-01
3.357066139516385e-02 3.357066139516426e-02 -1.705609072500435e-01
2.742496131477412e-15 3.357066139516438e-02 -1.705609072500439e-01
1.678533069758354e-02 1.492305638808302e-15 -8.578045362502959e-02
3.357066139516578e-02 1.678533069758367e-02 -8.578045362502967e-02
1.678533069758364e-02 3.357066139516589e-02 -8.578045362502978e-02
1.372014327409167e-15 1.678533069758376e-02 -8.578045362502984e-02
1.678533069758326e-02 3.465796932297244e-15 -1.705609072500434e-01
3.357066139516365e-02 1.678533069758380e-02 -1.705609072500432e-01
1.678533069758333e-02 3.357066139516419e-02 -1.705609072500435e-01
2.963002245710705e-15 1.678533069758387e-02 -1.705609072500436e-01
2.751136073597735e-15 3.079805300371964e-15 -1.190870604062853e-01
3.357066139516414e-02 3.057533589275435e-15 -1.190870604062850e-01
3.357066139516423e-02 3.357066139516437e-02 -1.190870604062851e-01
2.829136036592998e-15 3.357066139516447e-02 -1.190870604062856e-01
2.601255755162999e-15 1.678533069758379e-02 -1.190870604062852e-01
3.357066139516432e-02 1.678533069758368e-02 -1.190870604062849e-01
1.678533069758344e-02 2.887444059763453e-15 -1.190870604062850e-01
1.678533069758351e-02 3.357066139516460e-02 -1.190870604062851e-01
1.678533069758357e-02 1.678533069758368e-02 -8.578045362502798e-02
1.678533069758326e-02 1.678533069758384e-02 -1.705609072500435e-01
1.678533069758349e-02 1.678533069758375e-02 -1.190870604062850e-01
1.885974948598258e-15 2.149463188348739e-15 -1.211149337500414e-01
0.000000000000000e+00 0.000000000000000e+00 0.000000000000000e+00
1.043446011318603e-16 3.357066139516738e-02 0.000000000000000e+00
1.916374097496272e-15 3.357066139516535e-02 -1.211149337500418e-01
3.357066139516512e-02 2.004992510667688e-15 -1.211149337500413e-01
3.357066139516719e-02 0.000000000000000e+00 0.000000000000000e+00
3.357066139516737e-02 3.357066139516716e-02 0.000000000000000e+00
3.357066139516523e-02 3.357066139516537e-02 -1.211149337500413e-01
        </DataArray>
        <DataArray type="Float64" Name="node_gid" format="ascii">
0.000000000000000e+00
2.000000000000000e+00
8.000000000000000e+00
6.000000000000000e+00
1.800000000000000e+01
2.000000000000000e+01
2.600000000000000e+01
2.400000000000000e+01
1.000000000000000e+00
5.000000000000000e+00
7.000000000000000e+00
3.000000000000000e+00
1.900000000000000e+01
2.300000000000000e+01
2.500000000000000e+01
2.100000000000000e+01
9.000000000000000e+00
1.100000000000000e+01
1.700000000000000e+01
1.500000000000000e+01
1.200000000000000e+01
1.400000000000000e+01
1.000000000000000e+01
1.600000000000000e+01
4.000000000000000e+00
2.200000000000000e+01
1.300000000000000e+01
2.700000000000000e+01
2.800000000000000e+01
2.900000000000000e+01
3.000000000000000e+01
3.100000000000000e+01
3.200000000000000e+01
3.300000000000000e+01
3.400000000000000e+01
        </DataArray>
  </PointData>
  <CellData>
        <DataArray type="Float64" Name="element_ghosting" format="ascii">
0.000000000000000e+00
0.000000000000000e+00
        </DataArray>
        <DataArray type="Float64" Name="element_gid" format="ascii">
0.000000000000000e+00
1.000000000000000e+00
        </DataArray>
        <DataArray type="Float64" Name="element_owner" format="ascii">
0.000000000000000e+00
0.000000000000000e+00
        </DataArray>
      </CellData>

    </Piece>
  </UnstructuredGrid>
</VTKFile>
