<?xml version="1.0" ?> 
<!-- 
# vtk DataFile Version 3.0
-->
<VTKFile type="UnstructuredGrid" version="0.1" compressor="vtkZLibDataCompressor" byte_order="LittleEndian">
  <UnstructuredGrid>
    <FieldData>
      <DataArray type="Float64" Name="TIME" NumberOfTuples="1" format="ascii">
3.000000000000000e+00 
      </DataArray>
    </FieldData>

    <Piece NumberOfPoints="8" NumberOfCells="2" >
      <Points>
        <DataArray type="Float64" NumberOfComponents="3" format="ascii">
0.000000000000000e+00 5.000000000000000e-01 0.000000000000000e+00
5.000000000000000e-01 5.000000000000001e-01 0.000000000000000e+00
5.000000000000000e-01 1.000000000000000e+00 0.000000000000000e+00
0.000000000000000e+00 1.000000000000000e+00 0.000000000000000e+00
0.000000000000000e+00 0.000000000000000e+00 0.000000000000000e+00
5.000000000000000e-01 0.000000000000000e+00 0.000000000000000e+00
5.000000000000000e-01 5.000000000000001e-01 0.000000000000000e+00
0.000000000000000e+00 5.000000000000000e-01 0.000000000000000e+00
        </DataArray>
      </Points>

      <Cells>
        <DataArray type="Int32" Name="connectivity" format="ascii">
0 1 2 3 4 5 6 7 
        </DataArray>
        <DataArray type="Int32" Name="offsets" format="ascii">
4 8 
        </DataArray>
        <DataArray type="UInt8" Name="types" format="ascii">
9 9 
        </DataArray>
      </Cells>

  <PointData>
        <DataArray type="Float64" Name="displacement" NumberOfComponents="2" format="ascii">
0.000000000000000e+00 0.000000000000000e+00
6.017632044603492e-02 -1.315500048629563e-17
6.295563667653716e-02 -1.317504922749306e-02
0.000000000000000e+00 0.000000000000000e+00
0.000000000000000e+00 0.000000000000000e+00
6.295563667653711e-02 1.317504922749304e-02
6.017632044603492e-02 -1.315500048629563e-17
0.000000000000000e+00 0.000000000000000e+00
        </DataArray>
        <DataArray type="Float64" Name="nodal_GL_strains_xyz" NumberOfComponents="6" format="ascii">
1.275345844699656e-01 -6.043550695205256e-05 -3.186853724075339e-02 -1.387778780781446e-17 0.000000000000000e+00 0.000000000000000e+00
1.315901144910757e-01 -2.601860664328176e-02 -2.639287696194849e-02 -4.770489558936220e-18 0.000000000000000e+00 0.000000000000000e+00
1.325991889868617e-01 -2.601860664328175e-02 -2.664514558589498e-02 -3.841144008715549e-03 0.000000000000000e+00 0.000000000000000e+00
1.341248260691122e-01 -6.043550695205430e-05 -3.351609764054005e-02 -1.317504922749306e-02 0.000000000000000e+00 0.000000000000000e+00
1.341248260691122e-01 -6.043550695205083e-05 -3.351609764054005e-02 1.317504922749304e-02 0.000000000000000e+00 0.000000000000000e+00
1.325991889868615e-01 -2.601860664328176e-02 -2.664514558589495e-02 3.841144008715556e-03 0.000000000000000e+00 0.000000000000000e+00
1.315901144910757e-01 -2.601860664328176e-02 -2.639287696194849e-02 -4.770489558936220e-18 0.000000000000000e+00 0.000000000000000e+00
1.275345844699656e-01 -6.043550695205256e-05 -3.186853724075339e-02 -1.387778780781446e-17 0.000000000000000e+00 0.000000000000000e+00
        </DataArray>
        <DataArray type="Float64" Name="nodal_cauchy_stresses_xyz" NumberOfComponents="6" format="ascii">
1.537965647675281e+00 2.420988170727733e-01 0.000000000000000e+00 -1.561251128379126e-16 0.000000000000000e+00 0.000000000000000e+00
1.561953123763402e+00 1.567395161926200e-03 0.000000000000000e+00 -1.084202172485504e-16 0.000000000000000e+00 0.000000000000000e+00
1.574891360106150e+00 5.796733464114712e-03 0.000000000000000e+00 -5.284169455590230e-02 0.000000000000000e+00 0.000000000000000e+00
1.628334664099186e+00 2.601497399374223e-01 0.000000000000000e+00 -1.511553030933148e-01 0.000000000000000e+00 0.000000000000000e+00
1.628334664099186e+00 2.601497399374223e-01 0.000000000000000e+00 1.511553030933147e-01 0.000000000000000e+00 0.000000000000000e+00
1.574891360106148e+00 5.796733464114420e-03 0.000000000000000e+00 5.284169455590229e-02 0.000000000000000e+00 0.000000000000000e+00
1.561953123763402e+00 1.567395161926200e-03 0.000000000000000e+00 -1.084202172485504e-16 0.000000000000000e+00 0.000000000000000e+00
1.537965647675281e+00 2.420988170727733e-01 0.000000000000000e+00 -1.561251128379126e-16 0.000000000000000e+00 0.000000000000000e+00
        </DataArray>
  </PointData>
  <CellData>
        <DataArray type="Float64" Name="element_GL_strains_xyz" NumberOfComponents="6" format="ascii">
1.308297052695390e-01 -1.305417821358909e-02 -2.944388176398747e-02 -4.939964213959844e-03 0.000000000000000e+00 0.000000000000000e+00
1.308297052695390e-01 -1.305417821358909e-02 -2.944388176398747e-02 4.939964213959850e-03 0.000000000000000e+00 0.000000000000000e+00
        </DataArray>
        <DataArray type="Float64" Name="element_cauchy_stresses_xyz" NumberOfComponents="6" format="ascii">
1.566689434601651e+00 1.261079085580328e-01 0.000000000000000e+00 -6.077356511607006e-02 0.000000000000000e+00 0.000000000000000e+00
1.566689434601652e+00 1.261079085580328e-01 0.000000000000000e+00 6.077356511607006e-02 0.000000000000000e+00 0.000000000000000e+00
        </DataArray>
      </CellData>

    </Piece>
  </UnstructuredGrid>
</VTKFile>
