<?xml version="1.0" ?> 
<!-- 
# vtk DataFile Version 3.0
-->
<VTKFile type="UnstructuredGrid" version="0.1" compressor="vtkZLibDataCompressor" byte_order="LittleEndian">
  <UnstructuredGrid>
    <FieldData>
      <DataArray type="Float64" Name="TIME" NumberOfTuples="1" format="ascii">
3.000000000000000e+00 
      </DataArray>
    </FieldData>

    <Piece NumberOfPoints="8" NumberOfCells="2" >
      <Points>
        <DataArray type="Float64" NumberOfComponents="3" format="ascii">
5.000000000000000e-01 5.000000000000001e-01 0.000000000000000e+00
1.000000000000000e+00 5.000000000000000e-01 0.000000000000000e+00
1.000000000000000e+00 1.000000000000000e+00 0.000000000000000e+00
5.000000000000000e-01 1.000000000000000e+00 0.000000000000000e+00
5.000000000000000e-01 0.000000000000000e+00 0.000000000000000e+00
1.000000000000000e+00 0.000000000000000e+00 0.000000000000000e+00
1.000000000000000e+00 5.000000000000000e-01 0.000000000000000e+00
5.000000000000000e-01 5.000000000000001e-01 0.000000000000000e+00
        </DataArray>
      </Points>

      <Cells>
        <DataArray type="Int32" Name="connectivity" format="ascii">
0 1 2 3 4 5 6 7 
        </DataArray>
        <DataArray type="Int32" Name="offsets" format="ascii">
4 8 
        </DataArray>
        <DataArray type="UInt8" Name="types" format="ascii">
9 9 
        </DataArray>
      </Cells>

  <PointData>
        <DataArray type="Float64" Name="displacement" NumberOfComponents="2" format="ascii">
6.017632044603492e-02 -1.315500048629563e-17
1.239348908754559e-01 -4.852075537338892e-17
1.246818946204632e-01 -1.431107966329745e-02
6.295563667653716e-02 -1.317504922749306e-02
6.295563667653711e-02 1.317504922749304e-02
1.246818946204631e-01 1.431107966329739e-02
1.239348908754559e-01 -4.852075537338892e-17
6.017632044603492e-02 -1.315500048629563e-17
        </DataArray>
        <DataArray type="Float64" Name="nodal_GL_strains_xyz" NumberOfComponents="6" format="ascii">
1.315901144910757e-01 -2.601860664328176e-02 -2.639287696194849e-02 -4.770489558936220e-18 0.000000000000000e+00 0.000000000000000e+00
1.356456445121857e-01 -2.821323624820948e-02 -2.685810206599406e-02 3.686287386450715e-17 0.000000000000000e+00 0.000000000000000e+00
1.310735519046111e-01 -2.821323624820948e-02 -2.571507891410040e-02 -2.642915549648801e-04 0.000000000000000e+00 0.000000000000000e+00
1.325991889868617e-01 -2.601860664328175e-02 -2.664514558589498e-02 -3.841144008715549e-03 0.000000000000000e+00 0.000000000000000e+00
1.325991889868615e-01 -2.601860664328176e-02 -2.664514558589495e-02 3.841144008715556e-03 0.000000000000000e+00 0.000000000000000e+00
1.310735519046108e-01 -2.821323624820948e-02 -2.571507891410034e-02 2.642915549649825e-04 0.000000000000000e+00 0.000000000000000e+00
1.356456445121857e-01 -2.821323624820948e-02 -2.685810206599406e-02 3.686287386450715e-17 0.000000000000000e+00 0.000000000000000e+00
1.315901144910757e-01 -2.601860664328176e-02 -2.639287696194849e-02 -4.770489558936220e-18 0.000000000000000e+00 0.000000000000000e+00
        </DataArray>
        <DataArray type="Float64" Name="nodal_cauchy_stresses_xyz" NumberOfComponents="6" format="ascii">
1.561953123763402e+00 1.567395161926200e-03 0.000000000000000e+00 -1.084202172485504e-16 0.000000000000000e+00 0.000000000000000e+00
1.615817752432049e+00 -1.001531551048490e-02 0.000000000000000e+00 2.064320936412400e-16 0.000000000000000e+00 0.000000000000000e+00
1.551462047459377e+00 -1.847993977414509e-02 0.000000000000000e+00 -5.465389994299883e-03 0.000000000000000e+00 0.000000000000000e+00
1.574891360106150e+00 5.796733464114712e-03 0.000000000000000e+00 -5.284169455590230e-02 0.000000000000000e+00 0.000000000000000e+00
1.574891360106148e+00 5.796733464114420e-03 0.000000000000000e+00 5.284169455590229e-02 0.000000000000000e+00 0.000000000000000e+00
1.551462047459374e+00 -1.847993977414568e-02 0.000000000000000e+00 5.465389994300620e-03 0.000000000000000e+00 0.000000000000000e+00
1.615817752432049e+00 -1.001531551048490e-02 0.000000000000000e+00 2.064320936412400e-16 0.000000000000000e+00 0.000000000000000e+00
1.561953123763402e+00 1.567395161926200e-03 0.000000000000000e+00 -1.084202172485504e-16 0.000000000000000e+00 0.000000000000000e+00
        </DataArray>
  </PointData>
  <CellData>
        <DataArray type="Float64" Name="element_GL_strains_xyz" NumberOfComponents="6" format="ascii">
1.333595982083984e-01 -2.710126430727344e-02 -2.656458347528125e-02 1.432007137801878e-03 0.000000000000000e+00 0.000000000000000e+00
1.333595982083983e-01 -2.710126430727344e-02 -2.656458347528122e-02 -1.432007137801851e-03 0.000000000000000e+00 0.000000000000000e+00
        </DataArray>
        <DataArray type="Float64" Name="element_cauchy_stresses_xyz" NumberOfComponents="6" format="ascii">
1.585127835249598e+00 -3.987518813620966e-03 0.000000000000000e+00 1.066819847117257e-02 0.000000000000000e+00 0.000000000000000e+00
1.585127835249596e+00 -3.987518813621175e-03 0.000000000000000e+00 -1.066819847117251e-02 0.000000000000000e+00 0.000000000000000e+00
        </DataArray>
      </CellData>

    </Piece>
  </UnstructuredGrid>
</VTKFile>
