<?xml version="1.0" ?> 
<!-- 
# vtk DataFile Version 3.0
-->
<VTKFile type="UnstructuredGrid" version="0.1" compressor="vtkZLibDataCompressor" byte_order="LittleEndian">
  <UnstructuredGrid>
    <FieldData>
      <DataArray type="Float64" Name="TIME" NumberOfTuples="1" format="ascii">
1.000000000000000e+00 
      </DataArray>
    </FieldData>

    <Piece NumberOfPoints="8" NumberOfCells="2" >
      <Points>
        <DataArray type="Float64" NumberOfComponents="3" format="ascii">
0.000000000000000e+00 5.000000000000000e-01 0.000000000000000e+00
5.000000000000000e-01 5.000000000000001e-01 0.000000000000000e+00
5.000000000000000e-01 1.000000000000000e+00 0.000000000000000e+00
0.000000000000000e+00 1.000000000000000e+00 0.000000000000000e+00
0.000000000000000e+00 0.000000000000000e+00 0.000000000000000e+00
5.000000000000000e-01 0.000000000000000e+00 0.000000000000000e+00
5.000000000000000e-01 5.000000000000001e-01 0.000000000000000e+00
0.000000000000000e+00 5.000000000000000e-01 0.000000000000000e+00
        </DataArray>
      </Points>

      <Cells>
        <DataArray type="Int32" Name="connectivity" format="ascii">
0 1 2 3 4 5 6 7 
        </DataArray>
        <DataArray type="Int32" Name="offsets" format="ascii">
4 8 
        </DataArray>
        <DataArray type="UInt8" Name="types" format="ascii">
9 9 
        </DataArray>
      </Cells>

  <PointData>
        <DataArray type="Float64" Name="displacement" NumberOfComponents="2" format="ascii">
0.000000000000000e+00 0.000000000000000e+00
2.234551566992605e-02 1.500595033339153e-17
2.344920333616224e-02 -4.815752220340708e-03
0.000000000000000e+00 0.000000000000000e+00
0.000000000000000e+00 0.000000000000000e+00
2.344920333616230e-02 4.815752220340735e-03
2.234551566992605e-02 1.500595033339153e-17
0.000000000000000e+00 0.000000000000000e+00
        </DataArray>
        <DataArray type="Float64" Name="nodal_GL_strains_xyz" NumberOfComponents="6" format="ascii">
4.568153894899110e-02 -8.136531970828558e-06 -1.141835060425507e-02 1.528725063204561e-17 0.000000000000000e+00 0.000000000000000e+00
4.721634237088783e-02 -9.586896213968387e-03 -9.407361539229860e-03 -1.062518129035794e-17 0.000000000000000e+00 0.000000000000000e+00
4.747095102874691e-02 -9.586896213968426e-03 -9.471013703694620e-03 -1.368838632405691e-03 0.000000000000000e+00 0.000000000000000e+00
4.803638335345030e-02 -8.136531970829100e-06 -1.200706170536987e-02 -4.815752220340708e-03 0.000000000000000e+00 0.000000000000000e+00
4.803638335345076e-02 -8.136531970828016e-06 -1.200706170536998e-02 4.815752220340734e-03 0.000000000000000e+00 0.000000000000000e+00
4.747095102874713e-02 -9.586896213968349e-03 -9.471013703694698e-03 1.368838632405665e-03 0.000000000000000e+00 0.000000000000000e+00
4.721634237088783e-02 -9.586896213968387e-03 -9.407361539229860e-03 -1.062518129035794e-17 0.000000000000000e+00 0.000000000000000e+00
4.568153894899110e-02 -8.136531970828558e-06 -1.141835060425507e-02 1.528725063204561e-17 0.000000000000000e+00 0.000000000000000e+00
        </DataArray>
        <DataArray type="Float64" Name="nodal_cauchy_stresses_xyz" NumberOfComponents="6" format="ascii">
5.028728157459005e-01 9.174931653250065e-02 0.000000000000000e+00 1.361757928641794e-16 0.000000000000000e+00 0.000000000000000e+00
5.032680913045098e-01 -1.594752266939359e-03 0.000000000000000e+00 -6.938893903907228e-17 0.000000000000000e+00 0.000000000000000e+00
5.061093316399754e-01 -7.875412848877556e-04 0.000000000000000e+00 -1.397356714168456e-02 0.000000000000000e+00 0.000000000000000e+00
5.302328303619823e-01 9.714600998078811e-02 0.000000000000000e+00 -4.541612304659150e-02 0.000000000000000e+00 0.000000000000000e+00
5.302328303619880e-01 9.714600998078901e-02 0.000000000000000e+00 4.541612304659179e-02 0.000000000000000e+00 0.000000000000000e+00
5.061093316399778e-01 -7.875412848865457e-04 0.000000000000000e+00 1.397356714168438e-02 0.000000000000000e+00 0.000000000000000e+00
5.032680913045098e-01 -1.594752266939359e-03 0.000000000000000e+00 -6.938893903907228e-17 0.000000000000000e+00 0.000000000000000e+00
5.028728157459005e-01 9.174931653250065e-02 0.000000000000000e+00 1.361757928641794e-16 0.000000000000000e+00 0.000000000000000e+00
        </DataArray>
  </PointData>
  <CellData>
        <DataArray type="Float64" Name="element_GL_strains_xyz" NumberOfComponents="6" format="ascii">
4.685896115122073e-02 -4.799479156399222e-03 -1.051487049870538e-02 -1.819165009055506e-03 0.000000000000000e+00 0.000000000000000e+00
4.685896115122090e-02 -4.799479156399222e-03 -1.051487049870542e-02 1.819165009055503e-03 0.000000000000000e+00 0.000000000000000e+00
        </DataArray>
        <DataArray type="Float64" Name="element_cauchy_stresses_xyz" NumberOfComponents="6" format="ascii">
5.077614049663539e-01 4.612146276770018e-02 0.000000000000000e+00 -1.765098170720860e-02 0.000000000000000e+00 0.000000000000000e+00
5.077614049663559e-01 4.612146276770052e-02 0.000000000000000e+00 1.765098170720861e-02 0.000000000000000e+00 0.000000000000000e+00
        </DataArray>
      </CellData>

    </Piece>
  </UnstructuredGrid>
</VTKFile>
