<?xml version="1.0" ?> 
<!-- 
# vtk DataFile Version 3.0
-->
<VTKFile type="UnstructuredGrid" version="0.1" compressor="vtkZLibDataCompressor" byte_order="LittleEndian">
  <UnstructuredGrid>
    <FieldData>
      <DataArray type="Float64" Name="TIME" NumberOfTuples="1" format="ascii">
2.000000000000000e+00 
      </DataArray>
    </FieldData>

    <Piece NumberOfPoints="8" NumberOfCells="2" >
      <Points>
        <DataArray type="Float64" NumberOfComponents="3" format="ascii">
0.000000000000000e+00 5.000000000000000e-01 0.000000000000000e+00
5.000000000000000e-01 5.000000000000001e-01 0.000000000000000e+00
5.000000000000000e-01 1.000000000000000e+00 0.000000000000000e+00
0.000000000000000e+00 1.000000000000000e+00 0.000000000000000e+00
0.000000000000000e+00 0.000000000000000e+00 0.000000000000000e+00
5.000000000000000e-01 0.000000000000000e+00 0.000000000000000e+00
5.000000000000000e-01 5.000000000000001e-01 0.000000000000000e+00
0.000000000000000e+00 5.000000000000000e-01 0.000000000000000e+00
        </DataArray>
      </Points>

      <Cells>
        <DataArray type="Int32" Name="connectivity" format="ascii">
0 1 2 3 4 5 6 7 
        </DataArray>
        <DataArray type="Int32" Name="offsets" format="ascii">
4 8 
        </DataArray>
        <DataArray type="UInt8" Name="types" format="ascii">
9 9 
        </DataArray>
      </Cells>

  <PointData>
        <DataArray type="Float64" Name="displacement" NumberOfComponents="2" format="ascii">
0.000000000000000e+00 0.000000000000000e+00
4.219535628414453e-02 -1.233782555766183e-17
4.420596938155912e-02 -9.170638964739217e-03
0.000000000000000e+00 0.000000000000000e+00
0.000000000000000e+00 0.000000000000000e+00
4.420596938155905e-02 9.170638964739177e-03
4.219535628414453e-02 -1.233782555766183e-17
0.000000000000000e+00 0.000000000000000e+00
        </DataArray>
        <DataArray type="Float64" Name="nodal_GL_strains_xyz" NumberOfComponents="6" format="ascii">
8.792222769083133e-02 -2.938106134973734e-05 -2.197321165737039e-02 -1.366094737331736e-17 0.000000000000000e+00 0.000000000000000e+00
9.078886102603742e-02 -1.818014828863829e-02 -1.815217818434978e-02 2.114194236346734e-17 0.000000000000000e+00 0.000000000000000e+00
9.139118158323985e-02 -1.818014828863829e-02 -1.830275832365039e-02 -2.644433176952975e-03 0.000000000000000e+00 0.000000000000000e+00
9.245909439773833e-02 -2.938106134973799e-05 -2.310742833409715e-02 -9.170638964739219e-03 0.000000000000000e+00 0.000000000000000e+00
9.245909439773800e-02 -2.938106134973669e-05 -2.310742833409707e-02 9.170638964739176e-03 0.000000000000000e+00 0.000000000000000e+00
9.139118158323969e-02 -1.818014828863830e-02 -1.830275832365034e-02 2.644433176953017e-03 0.000000000000000e+00 0.000000000000000e+00
9.078886102603742e-02 -1.818014828863829e-02 -1.815217818434978e-02 2.114194236346734e-17 0.000000000000000e+00 0.000000000000000e+00
8.792222769083133e-02 -2.938106134973734e-05 -2.197321165737039e-02 -1.366094737331736e-17 0.000000000000000e+00 0.000000000000000e+00
        </DataArray>
        <DataArray type="Float64" Name="nodal_cauchy_stresses_xyz" NumberOfComponents="6" format="ascii">
1.015626873657026e+00 1.712926985801972e-01 0.000000000000000e+00 -1.214306433183765e-16 0.000000000000000e+00 0.000000000000000e+00
1.024268102947422e+00 -8.049258821418962e-04 0.000000000000000e+00 1.448494102440634e-16 0.000000000000000e+00 0.000000000000000e+00
1.031489748060392e+00 1.464350714088027e-03 0.000000000000000e+00 -3.174856216903207e-02 0.000000000000000e+00 0.000000000000000e+00
1.073270280856356e+00 1.826911142483055e-01 0.000000000000000e+00 -9.603583041706250e-02 0.000000000000000e+00 0.000000000000000e+00
1.073270280856352e+00 1.826911142483048e-01 0.000000000000000e+00 9.603583041706196e-02 0.000000000000000e+00 0.000000000000000e+00
1.031489748060390e+00 1.464350714087533e-03 0.000000000000000e+00 3.174856216903236e-02 0.000000000000000e+00 0.000000000000000e+00
1.024268102947422e+00 -8.049258821418962e-04 0.000000000000000e+00 1.448494102440634e-16 0.000000000000000e+00 0.000000000000000e+00
1.015626873657026e+00 1.712926985801972e-01 0.000000000000000e+00 -1.214306433183765e-16 0.000000000000000e+00 0.000000000000000e+00
        </DataArray>
  </PointData>
  <CellData>
        <DataArray type="Float64" Name="element_GL_strains_xyz" NumberOfComponents="6" format="ascii">
9.019066104428480e-02 -9.111876842039790e-03 -2.026969605056125e-02 -3.451102805642801e-03 0.000000000000000e+00 0.000000000000000e+00
9.019066104428469e-02 -9.111876842039790e-03 -2.026969605056123e-02 3.451102805642810e-03 0.000000000000000e+00 0.000000000000000e+00
        </DataArray>
        <DataArray type="Float64" Name="element_cauchy_stresses_xyz" NumberOfComponents="6" format="ascii">
1.030267706974207e+00 8.772630531804405e-02 0.000000000000000e+00 -3.803200031653305e-02 0.000000000000000e+00 0.000000000000000e+00
1.030267706974206e+00 8.772630531804382e-02 0.000000000000000e+00 3.803200031653304e-02 0.000000000000000e+00 0.000000000000000e+00
        </DataArray>
      </CellData>

    </Piece>
  </UnstructuredGrid>
</VTKFile>
