<?xml version="1.0" ?> 
<!-- 
# vtk DataFile Version 3.0
-->
<VTKFile type="UnstructuredGrid" version="0.1" compressor="vtkZLibDataCompressor" byte_order="LittleEndian">
  <UnstructuredGrid>
    <FieldData>
      <DataArray type="Float64" Name="TIME" NumberOfTuples="1" format="ascii">
2.000000000000000e+00 
      </DataArray>
    </FieldData>

    <Piece NumberOfPoints="8" NumberOfCells="2" >
      <Points>
        <DataArray type="Float64" NumberOfComponents="3" format="ascii">
5.000000000000000e-01 5.000000000000001e-01 0.000000000000000e+00
1.000000000000000e+00 5.000000000000000e-01 0.000000000000000e+00
1.000000000000000e+00 1.000000000000000e+00 0.000000000000000e+00
5.000000000000000e-01 1.000000000000000e+00 0.000000000000000e+00
5.000000000000000e-01 0.000000000000000e+00 0.000000000000000e+00
1.000000000000000e+00 0.000000000000000e+00 0.000000000000000e+00
1.000000000000000e+00 5.000000000000000e-01 0.000000000000000e+00
5.000000000000000e-01 5.000000000000001e-01 0.000000000000000e+00
        </DataArray>
      </Points>

      <Cells>
        <DataArray type="Int32" Name="connectivity" format="ascii">
0 1 2 3 4 5 6 7 
        </DataArray>
        <DataArray type="Int32" Name="offsets" format="ascii">
4 8 
        </DataArray>
        <DataArray type="UInt8" Name="types" format="ascii">
9 9 
        </DataArray>
      </Cells>

  <PointData>
        <DataArray type="Float64" Name="displacement" NumberOfComponents="2" format="ascii">
4.219535628414453e-02 -1.233782555766183e-17
8.701478818539851e-02 -3.867400113078189e-17
8.749378376145664e-02 -9.842447916626688e-03
4.420596938155912e-02 -9.170638964739217e-03
4.420596938155905e-02 9.170638964739177e-03
8.749378376145661e-02 9.842447916626610e-03
8.701478818539851e-02 -3.867400113078189e-17
4.219535628414453e-02 -1.233782555766183e-17
        </DataArray>
        <DataArray type="Float64" Name="nodal_GL_strains_xyz" NumberOfComponents="6" format="ascii">
9.078886102603742e-02 -1.818014828863829e-02 -1.815217818434978e-02 2.114194236346734e-17 0.000000000000000e+00 0.000000000000000e+00
9.365549436124376e-02 -1.949162179091306e-02 -1.854096814258268e-02 -2.168404344971009e-18 0.000000000000000e+00 0.000000000000000e+00
9.032326876874121e-02 -1.949162179091313e-02 -1.770791174445703e-02 -1.381195434211934e-04 0.000000000000000e+00 0.000000000000000e+00
9.139118158323985e-02 -1.818014828863829e-02 -1.830275832365039e-02 -2.644433176952975e-03 0.000000000000000e+00 0.000000000000000e+00
9.139118158323969e-02 -1.818014828863830e-02 -1.830275832365034e-02 2.644433176953017e-03 0.000000000000000e+00 0.000000000000000e+00
9.032326876874139e-02 -1.949162179091299e-02 -1.770791174445710e-02 1.381195434212087e-04 0.000000000000000e+00 0.000000000000000e+00
9.365549436124376e-02 -1.949162179091306e-02 -1.854096814258268e-02 -2.168404344971009e-18 0.000000000000000e+00 0.000000000000000e+00
9.078886102603742e-02 -1.818014828863829e-02 -1.815217818434978e-02 2.114194236346734e-17 0.000000000000000e+00 0.000000000000000e+00
        </DataArray>
        <DataArray type="Float64" Name="nodal_cauchy_stresses_xyz" NumberOfComponents="6" format="ascii">
1.024268102947422e+00 -8.049258821418962e-04 0.000000000000000e+00 1.448494102440634e-16 0.000000000000000e+00 0.000000000000000e+00
1.059028414767899e+00 -7.267329999398428e-03 0.000000000000000e+00 -7.285838599102590e-17 0.000000000000000e+00 0.000000000000000e+00
1.015953541092898e+00 -1.365420976280400e-02 0.000000000000000e+00 -2.458076484540970e-03 0.000000000000000e+00 0.000000000000000e+00
1.031489748060392e+00 1.464350714088027e-03 0.000000000000000e+00 -3.174856216903207e-02 0.000000000000000e+00 0.000000000000000e+00
1.031489748060390e+00 1.464350714087533e-03 0.000000000000000e+00 3.174856216903236e-02 0.000000000000000e+00 0.000000000000000e+00
1.015953541092901e+00 -1.365420976280237e-02 0.000000000000000e+00 2.458076484541026e-03 0.000000000000000e+00 0.000000000000000e+00
1.059028414767899e+00 -7.267329999398428e-03 0.000000000000000e+00 -7.285838599102590e-17 0.000000000000000e+00 0.000000000000000e+00
1.024268102947422e+00 -8.049258821418962e-04 0.000000000000000e+00 1.448494102440634e-16 0.000000000000000e+00 0.000000000000000e+00
        </DataArray>
  </PointData>
  <CellData>
        <DataArray type="Float64" Name="element_GL_strains_xyz" NumberOfComponents="6" format="ascii">
9.198938156499253e-02 -1.882877287272994e-02 -1.829015217306565e-02 1.024962724046247e-03 0.000000000000000e+00 0.000000000000000e+00
9.198938156499248e-02 -1.882877287272988e-02 -1.829015217306565e-02 -1.024962724046228e-03 0.000000000000000e+00 0.000000000000000e+00
        </DataArray>
        <DataArray type="Float64" Name="element_cauchy_stresses_xyz" NumberOfComponents="6" format="ascii">
1.038580996123245e+00 -4.131024635496006e-03 0.000000000000000e+00 8.058554168663502e-03 0.000000000000000e+00 0.000000000000000e+00
1.038580996123244e+00 -4.131024635495580e-03 0.000000000000000e+00 -8.058554168663436e-03 0.000000000000000e+00 0.000000000000000e+00
        </DataArray>
      </CellData>

    </Piece>
  </UnstructuredGrid>
</VTKFile>
