<?xml version="1.0" ?> 
<!-- 
# vtk DataFile Version 3.0
-->
<VTKFile type="UnstructuredGrid" version="0.1" compressor="vtkZLibDataCompressor" byte_order="LittleEndian">
  <UnstructuredGrid>
    <FieldData>
      <DataArray type="Float64" Name="TIME" NumberOfTuples="1" format="ascii">
1.000000000000000e+00 
      </DataArray>
    </FieldData>

    <Piece NumberOfPoints="8" NumberOfCells="2" >
      <Points>
        <DataArray type="Float64" NumberOfComponents="3" format="ascii">
5.000000000000000e-01 5.000000000000001e-01 0.000000000000000e+00
1.000000000000000e+00 5.000000000000000e-01 0.000000000000000e+00
1.000000000000000e+00 1.000000000000000e+00 0.000000000000000e+00
5.000000000000000e-01 1.000000000000000e+00 0.000000000000000e+00
5.000000000000000e-01 0.000000000000000e+00 0.000000000000000e+00
1.000000000000000e+00 0.000000000000000e+00 0.000000000000000e+00
1.000000000000000e+00 5.000000000000000e-01 0.000000000000000e+00
5.000000000000000e-01 5.000000000000001e-01 0.000000000000000e+00
        </DataArray>
      </Points>

      <Cells>
        <DataArray type="Int32" Name="connectivity" format="ascii">
0 1 2 3 4 5 6 7 
        </DataArray>
        <DataArray type="Int32" Name="offsets" format="ascii">
4 8 
        </DataArray>
        <DataArray type="UInt8" Name="types" format="ascii">
9 9 
        </DataArray>
      </Cells>

  <PointData>
        <DataArray type="Float64" Name="displacement" NumberOfComponents="2" format="ascii">
2.234551566992605e-02 1.500595033339153e-17
4.615436973361830e-02 4.456523775094008e-17
4.637637152154055e-02 -5.096509711710303e-03
2.344920333616224e-02 -4.815752220340708e-03
2.344920333616230e-02 4.815752220340735e-03
4.637637152154061e-02 5.096509711710382e-03
4.615436973361830e-02 4.456523775094008e-17
2.234551566992605e-02 1.500595033339153e-17
        </DataArray>
        <DataArray type="Float64" Name="nodal_GL_strains_xyz" NumberOfComponents="6" format="ascii">
4.721634237088783e-02 -9.586896213968387e-03 -9.407361539229860e-03 -1.062518129035794e-17 0.000000000000000e+00 0.000000000000000e+00
4.875114579278455e-02 -1.014125742960221e-02 -9.652472090795585e-03 -1.897353801849633e-18 0.000000000000000e+00 0.000000000000000e+00
4.690551870404351e-02 -1.014125742960218e-02 -9.191065318610331e-03 -4.571419222624689e-05 0.000000000000000e+00 0.000000000000000e+00
4.747095102874691e-02 -9.586896213968426e-03 -9.471013703694620e-03 -1.368838632405691e-03 0.000000000000000e+00 0.000000000000000e+00
4.747095102874713e-02 -9.586896213968349e-03 -9.471013703694698e-03 1.368838632405665e-03 0.000000000000000e+00 0.000000000000000e+00
4.690551870404353e-02 -1.014125742960223e-02 -9.191065318610326e-03 4.571419222623785e-05 0.000000000000000e+00 0.000000000000000e+00
4.875114579278455e-02 -1.014125742960221e-02 -9.652472090795585e-03 -1.897353801849633e-18 0.000000000000000e+00 0.000000000000000e+00
4.721634237088783e-02 -9.586896213968387e-03 -9.407361539229860e-03 -1.062518129035794e-17 0.000000000000000e+00 0.000000000000000e+00
        </DataArray>
        <DataArray type="Float64" Name="nodal_cauchy_stresses_xyz" NumberOfComponents="6" format="ascii">
5.032680913045098e-01 -1.594752266939359e-03 0.000000000000000e+00 -6.938893903907228e-17 0.000000000000000e+00 0.000000000000000e+00
5.201579724730113e-01 -3.886486924025588e-03 0.000000000000000e+00 1.322726650432315e-17 0.000000000000000e+00 0.000000000000000e+00
4.985328351125620e-01 -7.563562562497078e-03 0.000000000000000e+00 -6.594313910509957e-04 0.000000000000000e+00 0.000000000000000e+00
5.061093316399754e-01 -7.875412848877556e-04 0.000000000000000e+00 -1.397356714168456e-02 0.000000000000000e+00 0.000000000000000e+00
5.061093316399778e-01 -7.875412848865457e-04 0.000000000000000e+00 1.397356714168438e-02 0.000000000000000e+00 0.000000000000000e+00
4.985328351125622e-01 -7.563562562497490e-03 0.000000000000000e+00 6.594313910509703e-04 0.000000000000000e+00 0.000000000000000e+00
5.201579724730113e-01 -3.886486924025588e-03 0.000000000000000e+00 1.322726650432315e-17 0.000000000000000e+00 0.000000000000000e+00
5.032680913045098e-01 -1.594752266939359e-03 0.000000000000000e+00 -6.938893903907228e-17 0.000000000000000e+00 0.000000000000000e+00
        </DataArray>
  </PointData>
  <CellData>
        <DataArray type="Float64" Name="element_GL_strains_xyz" NumberOfComponents="6" format="ascii">
4.782833224841404e-02 -9.862114038355713e-03 -9.491554552514582e-03 5.548361782038115e-04 0.000000000000000e+00 0.000000000000000e+00
4.782833224841404e-02 -9.862114038355657e-03 -9.491554552514596e-03 -5.548361782038212e-04 0.000000000000000e+00 0.000000000000000e+00
        </DataArray>
        <DataArray type="Float64" Name="element_cauchy_stresses_xyz" NumberOfComponents="6" format="ascii">
5.098764199292531e-01 -2.951290286922288e-03 0.000000000000000e+00 4.529383770169718e-03 0.000000000000000e+00 0.000000000000000e+00
5.098764199292531e-01 -2.951290286921735e-03 0.000000000000000e+00 -4.529383770169749e-03 0.000000000000000e+00 0.000000000000000e+00
        </DataArray>
      </CellData>

    </Piece>
  </UnstructuredGrid>
</VTKFile>
