<?xml version="1.0" ?> 
<!-- 
# vtk DataFile Version 3.0
-->
<VTKFile type="UnstructuredGrid" version="0.1" compressor="vtkZLibDataCompressor" byte_order="LittleEndian">
  <UnstructuredGrid>
    <FieldData>
      <DataArray type="Float64" Name="TIME" NumberOfTuples="1" format="ascii">
1.000000000000000e+00 
      </DataArray>
    </FieldData>

    <Piece NumberOfPoints="3000" NumberOfCells="375" >
      <Points>
        <DataArray type="Float64" NumberOfComponents="3" format="ascii">
-2.000000000000000e+00 -2.000000000000000e+00 0.000000000000000e+00
-2.000000000000000e+00 -2.000000000000000e+00 -8.000000000000000e-01
-2.000000000000000e+00 -1.200000000000000e+00 -8.000000000000003e-01
-2.000000000000000e+00 -1.200000000000000e+00 0.000000000000000e+00
-1.200000000000000e+00 -2.000000000000000e+00 0.000000000000000e+00
-1.200000000000000e+00 -2.000000000000000e+00 -8.000000000000003e-01
-1.200000000000000e+00 -1.200000000000000e+00 -8.000000000000005e-01
-1.200000000000000e+00 -1.200000000000000e+00 0.000000000000000e+00
-2.000000000000000e+00 -2.000000000000000e+00 -8.000000000000000e-01
-2.000000000000000e+00 -2.000000000000000e+00 -1.600000000000000e+00
-2.000000000000000e+00 -1.200000000000000e+00 -1.600000000000000e+00
-2.000000000000000e+00 -1.200000000000000e+00 -8.000000000000003e-01
-1.200000000000000e+00 -2.000000000000000e+00 -8.000000000000003e-01
-1.200000000000000e+00 -2.000000000000000e+00 -1.600000000000000e+00
-1.200000000000000e+00 -1.200000000000000e+00 -1.600000000000000e+00
-1.200000000000000e+00 -1.200000000000000e+00 -8.000000000000005e-01
-2.000000000000000e+00 -2.000000000000000e+00 -1.600000000000000e+00
-2.000000000000000e+00 -2.000000000000000e+00 -2.400000000000000e+00
-2.000000000000000e+00 -1.200000000000000e+00 -2.400000000000000e+00
-2.000000000000000e+00 -1.200000000000000e+00 -1.600000000000000e+00
-1.200000000000000e+00 -2.000000000000000e+00 -1.600000000000000e+00
-1.200000000000000e+00 -2.000000000000000e+00 -2.400000000000000e+00
-1.200000000000000e+00 -1.200000000000000e+00 -2.400000000000000e+00
-1.200000000000000e+00 -1.200000000000000e+00 -1.600000000000000e+00
-2.000000000000000e+00 -2.000000000000000e+00 -2.400000000000000e+00
-2.000000000000000e+00 -2.000000000000000e+00 -3.200000000000000e+00
-2.000000000000000e+00 -1.200000000000000e+00 -3.200000000000000e+00
-2.000000000000000e+00 -1.200000000000000e+00 -2.400000000000000e+00
-1.200000000000000e+00 -2.000000000000000e+00 -2.400000000000000e+00
-1.200000000000000e+00 -2.000000000000000e+00 -3.200000000000000e+00
-1.200000000000000e+00 -1.200000000000000e+00 -3.200000000000000e+00
-1.200000000000000e+00 -1.200000000000000e+00 -2.400000000000000e+00
-2.000000000000000e+00 -2.000000000000000e+00 -3.200000000000000e+00
-2.000000000000000e+00 -2.000000000000000e+00 -4.000000000000000e+00
-2.000000000000000e+00 -1.200000000000000e+00 -4.000000000000000e+00
-2.000000000000000e+00 -1.200000000000000e+00 -3.200000000000000e+00
-1.200000000000000e+00 -2.000000000000000e+00 -3.200000000000000e+00
-1.200000000000000e+00 -2.000000000000000e+00 -4.000000000000000e+00
-1.200000000000000e+00 -1.200000000000000e+00 -4.000000000000000e+00
-1.200000000000000e+00 -1.200000000000000e+00 -3.200000000000000e+00
-2.000000000000000e+00 -1.200000000000000e+00 0.000000000000000e+00
-2.000000000000000e+00 -1.200000000000000e+00 -8.000000000000003e-01
-2.000000000000000e+00 -4.000000000000001e-01 -8.000000000000003e-01
-2.000000000000000e+00 -4.000000000000004e-01 0.000000000000000e+00
-1.200000000000000e+00 -1.200000000000000e+00 0.000000000000000e+00
-1.200000000000000e+00 -1.200000000000000e+00 -8.000000000000005e-01
-1.200000000000000e+00 -4.000000000000001e-01 -8.000000000000007e-01
-1.200000000000000e+00 -4.000000000000004e-01 0.000000000000000e+00
-2.000000000000000e+00 -1.200000000000000e+00 -8.000000000000003e-01
-2.000000000000000e+00 -1.200000000000000e+00 -1.600000000000000e+00
-2.000000000000000e+00 -4.000000000000000e-01 -1.600000000000000e+00
-2.000000000000000e+00 -4.000000000000001e-01 -8.000000000000003e-01
-1.200000000000000e+00 -1.200000000000000e+00 -8.000000000000005e-01
-1.200000000000000e+00 -1.200000000000000e+00 -1.600000000000000e+00
-1.200000000000000e+00 -4.000000000000000e-01 -1.600000000000000e+00
-1.200000000000000e+00 -4.000000000000001e-01 -8.000000000000007e-01
-2.000000000000000e+00 -1.200000000000000e+00 -1.600000000000000e+00
-2.000000000000000e+00 -1.200000000000000e+00 -2.400000000000000e+00
-2.000000000000000e+00 -4.000000000000002e-01 -2.400000000000000e+00
-2.000000000000000e+00 -4.000000000000000e-01 -1.600000000000000e+00
-1.200000000000000e+00 -1.200000000000000e+00 -1.600000000000000e+00
-1.200000000000000e+00 -1.200000000000000e+00 -2.400000000000000e+00
-1.200000000000001e+00 -4.000000000000004e-01 -2.400000000000001e+00
-1.200000000000000e+00 -4.000000000000000e-01 -1.600000000000000e+00
-2.000000000000000e+00 -1.200000000000000e+00 -2.400000000000000e+00
-2.000000000000000e+00 -1.200000000000000e+00 -3.200000000000000e+00
-2.000000000000000e+00 -4.000000000000001e-01 -3.200000000000000e+00
-2.000000000000000e+00 -4.000000000000002e-01 -2.400000000000000e+00
-1.200000000000000e+00 -1.200000000000000e+00 -2.400000000000000e+00
-1.200000000000000e+00 -1.200000000000000e+00 -3.200000000000000e+00
-1.200000000000000e+00 -4.000000000000000e-01 -3.200000000000000e+00
-1.200000000000001e+00 -4.000000000000004e-01 -2.400000000000001e+00
-2.000000000000000e+00 -1.200000000000000e+00 -3.200000000000000e+00
-2.000000000000000e+00 -1.200000000000000e+00 -4.000000000000000e+00
-2.000000000000000e+00 -3.999999999999999e-01 -4.000000000000000e+00
-2.000000000000000e+00 -4.000000000000001e-01 -3.200000000000000e+00
-1.200000000000000e+00 -1.200000000000000e+00 -3.200000000000000e+00
-1.200000000000000e+00 -1.200000000000000e+00 -4.000000000000000e+00
-1.200000000000000e+00 -4.000000000000001e-01 -4.000000000000000e+00
-1.200000000000000e+00 -4.000000000000000e-01 -3.200000000000000e+00
-2.000000000000000e+00 -4.000000000000004e-01 0.000000000000000e+00
-2.000000000000000e+00 -4.000000000000001e-01 -8.000000000000003e-01
-2.000000000000000e+00 4.000000000000001e-01 -8.000000000000003e-01
-2.000000000000000e+00 3.999999999999999e-01 0.000000000000000e+00
-1.200000000000000e+00 -4.000000000000004e-01 0.000000000000000e+00
-1.200000000000000e+00 -4.000000000000001e-01 -8.000000000000007e-01
-1.200000000000000e+00 4.000000000000001e-01 -8.000000000000004e-01
-1.200000000000000e+00 4.000000000000001e-01 0.000000000000000e+00
-2.000000000000000e+00 -4.000000000000001e-01 -8.000000000000003e-01
-2.000000000000000e+00 -4.000000000000000e-01 -1.600000000000000e+00
-2.000000000000000e+00 4.000000000000000e-01 -1.600000000000000e+00
-2.000000000000000e+00 4.000000000000001e-01 -8.000000000000003e-01
-1.200000000000000e+00 -4.000000000000001e-01 -8.000000000000007e-01
-1.200000000000000e+00 -4.000000000000000e-01 -1.600000000000000e+00
-1.200000000000000e+00 4.000000000000001e-01 -1.600000000000000e+00
-1.200000000000000e+00 4.000000000000001e-01 -8.000000000000004e-01
-2.000000000000000e+00 -4.000000000000000e-01 -1.600000000000000e+00
-2.000000000000000e+00 -4.000000000000002e-01 -2.400000000000000e+00
-2.000000000000000e+00 4.000000000000002e-01 -2.400000000000000e+00
-2.000000000000000e+00 4.000000000000000e-01 -1.600000000000000e+00
-1.200000000000000e+00 -4.000000000000000e-01 -1.600000000000000e+00
-1.200000000000001e+00 -4.000000000000004e-01 -2.400000000000001e+00
-1.200000000000000e+00 4.000000000000002e-01 -2.400000000000001e+00
-1.200000000000000e+00 4.000000000000001e-01 -1.600000000000000e+00
-2.000000000000000e+00 -4.000000000000002e-01 -2.400000000000000e+00
-2.000000000000000e+00 -4.000000000000001e-01 -3.200000000000000e+00
-2.000000000000000e+00 4.000000000000002e-01 -3.200000000000001e+00
-2.000000000000000e+00 4.000000000000002e-01 -2.400000000000000e+00
-1.200000000000001e+00 -4.000000000000004e-01 -2.400000000000001e+00
-1.200000000000000e+00 -4.000000000000000e-01 -3.200000000000000e+00
-1.200000000000001e+00 4.000000000000004e-01 -3.200000000000000e+00
-1.200000000000000e+00 4.000000000000002e-01 -2.400000000000001e+00
-2.000000000000000e+00 -4.000000000000001e-01 -3.200000000000000e+00
-2.000000000000000e+00 -3.999999999999999e-01 -4.000000000000000e+00
-2.000000000000000e+00 4.000000000000004e-01 -4.000000000000000e+00
-2.000000000000000e+00 4.000000000000002e-01 -3.200000000000001e+00
-1.200000000000000e+00 -4.000000000000000e-01 -3.200000000000000e+00
-1.200000000000000e+00 -4.000000000000001e-01 -4.000000000000000e+00
-1.200000000000000e+00 4.000000000000004e-01 -4.000000000000000e+00
-1.200000000000001e+00 4.000000000000004e-01 -3.200000000000000e+00
-2.000000000000000e+00 3.999999999999999e-01 0.000000000000000e+00
-2.000000000000000e+00 4.000000000000001e-01 -8.000000000000003e-01
-2.000000000000000e+00 1.200000000000000e+00 -8.000000000000003e-01
-2.000000000000000e+00 1.200000000000000e+00 0.000000000000000e+00
-1.200000000000000e+00 4.000000000000001e-01 0.000000000000000e+00
-1.200000000000000e+00 4.000000000000001e-01 -8.000000000000004e-01
-1.200000000000000e+00 1.200000000000000e+00 -8.000000000000005e-01
-1.200000000000000e+00 1.200000000000000e+00 0.000000000000000e+00
-2.000000000000000e+00 4.000000000000001e-01 -8.000000000000003e-01
-2.000000000000000e+00 4.000000000000000e-01 -1.600000000000000e+00
-2.000000000000000e+00 1.200000000000000e+00 -1.600000000000000e+00
-2.000000000000000e+00 1.200000000000000e+00 -8.000000000000003e-01
-1.200000000000000e+00 4.000000000000001e-01 -8.000000000000004e-01
-1.200000000000000e+00 4.000000000000001e-01 -1.600000000000000e+00
-1.200000000000000e+00 1.200000000000000e+00 -1.600000000000000e+00
-1.200000000000000e+00 1.200000000000000e+00 -8.000000000000005e-01
-2.000000000000000e+00 4.000000000000000e-01 -1.600000000000000e+00
-2.000000000000000e+00 4.000000000000002e-01 -2.400000000000000e+00
[...]
  <PointData>
        <DataArray type="Float64" Name="displacement" NumberOfComponents="3" format="ascii">
0.000000000000000e+00 -1.035827646949057e-02 -1.000000000000000e-01
0.000000000000000e+00 -1.035827646949041e-02 -9.305539901931670e-02
0.000000000000000e+00 -8.286621175592465e-03 -9.305539901931707e-02
0.000000000000000e+00 -8.286621175592375e-03 -1.000000000000000e-01
2.071655293898226e-03 -1.035827646949043e-02 -1.000000000000000e-01
2.071655293898054e-03 -1.035827646949036e-02 -9.305539901931691e-02
2.071655293898130e-03 -8.286621175592260e-03 -9.305539901931684e-02
2.071655293898118e-03 -8.286621175592273e-03 -1.000000000000000e-01
0.000000000000000e+00 -1.035827646949041e-02 -9.305539901931670e-02
0.000000000000000e+00 -1.035827646949049e-02 -8.611079803863389e-02
0.000000000000000e+00 -8.286621175592415e-03 -8.611079803863353e-02
0.000000000000000e+00 -8.286621175592465e-03 -9.305539901931707e-02
2.071655293898054e-03 -1.035827646949036e-02 -9.305539901931691e-02
2.071655293898266e-03 -1.035827646949046e-02 -8.611079803863370e-02
2.071655293897938e-03 -8.286621175592267e-03 -8.611079803863377e-02
2.071655293898130e-03 -8.286621175592260e-03 -9.305539901931684e-02
0.000000000000000e+00 -1.035827646949049e-02 -8.611079803863389e-02
0.000000000000000e+00 -1.035827646949020e-02 -7.916619705795079e-02
0.000000000000000e+00 -8.286621175592170e-03 -7.916619705795044e-02
0.000000000000000e+00 -8.286621175592415e-03 -8.611079803863353e-02
2.071655293898266e-03 -1.035827646949046e-02 -8.611079803863370e-02
2.071655293898125e-03 -1.035827646949044e-02 -7.916619705795028e-02
2.071655293898102e-03 -8.286621175592285e-03 -7.916619705795046e-02
2.071655293897938e-03 -8.286621175592267e-03 -8.611079803863377e-02
0.000000000000000e+00 -1.035827646949020e-02 -7.916619705795079e-02
0.000000000000000e+00 -1.035827646949015e-02 -7.222159607726729e-02
0.000000000000000e+00 -8.286621175592370e-03 -7.222159607726708e-02
0.000000000000000e+00 -8.286621175592170e-03 -7.916619705795044e-02
2.071655293898125e-03 -1.035827646949044e-02 -7.916619705795028e-02
2.071655293898156e-03 -1.035827646949044e-02 -7.222159607726748e-02
2.071655293897962e-03 -8.286621175592259e-03 -7.222159607726712e-02
2.071655293898102e-03 -8.286621175592285e-03 -7.916619705795046e-02
0.000000000000000e+00 -1.035827646949015e-02 -7.222159607726729e-02
0.000000000000000e+00 -1.035827646949042e-02 -6.527699509658418e-02
0.000000000000000e+00 -8.286621175592300e-03 -6.527699509658429e-02
0.000000000000000e+00 -8.286621175592370e-03 -7.222159607726708e-02
2.071655293898156e-03 -1.035827646949044e-02 -7.222159607726748e-02
2.071655293898123e-03 -1.035827646949055e-02 -6.527699509658434e-02
2.071655293897938e-03 -8.286621175592198e-03 -6.527699509658466e-02
2.071655293897962e-03 -8.286621175592259e-03 -7.222159607726712e-02
0.000000000000000e+00 -8.286621175592375e-03 -1.000000000000000e-01
0.000000000000000e+00 -8.286621175592465e-03 -9.305539901931707e-02
0.000000000000000e+00 -6.214965881694190e-03 -9.305539901931686e-02
0.000000000000000e+00 -6.214965881694180e-03 -1.000000000000000e-01
2.071655293898118e-03 -8.286621175592273e-03 -1.000000000000000e-01
2.071655293898130e-03 -8.286621175592260e-03 -9.305539901931684e-02
2.071655293898000e-03 -6.214965881694104e-03 -9.305539901931686e-02
2.071655293898145e-03 -6.214965881694190e-03 -1.000000000000000e-01
0.000000000000000e+00 -8.286621175592465e-03 -9.305539901931707e-02
0.000000000000000e+00 -8.286621175592415e-03 -8.611079803863353e-02
0.000000000000000e+00 -6.214965881694186e-03 -8.611079803863389e-02
0.000000000000000e+00 -6.214965881694190e-03 -9.305539901931686e-02
2.071655293898130e-03 -8.286621175592260e-03 -9.305539901931684e-02
2.071655293897938e-03 -8.286621175592267e-03 -8.611079803863377e-02
2.071655293898072e-03 -6.214965881694194e-03 -8.611079803863378e-02
2.071655293898000e-03 -6.214965881694104e-03 -9.305539901931686e-02
0.000000000000000e+00 -8.286621175592415e-03 -8.611079803863353e-02
0.000000000000000e+00 -8.286621175592170e-03 -7.916619705795044e-02
0.000000000000000e+00 -6.214965881694236e-03 -7.916619705795053e-02
0.000000000000000e+00 -6.214965881694186e-03 -8.611079803863389e-02
2.071655293897938e-03 -8.286621175592267e-03 -8.611079803863377e-02
2.071655293898102e-03 -8.286621175592285e-03 -7.916619705795046e-02
2.071655293897974e-03 -6.214965881694153e-03 -7.916619705795086e-02
2.071655293898072e-03 -6.214965881694194e-03 -8.611079803863378e-02
0.000000000000000e+00 -8.286621175592170e-03 -7.916619705795044e-02
0.000000000000000e+00 -8.286621175592370e-03 -7.222159607726708e-02
0.000000000000000e+00 -6.214965881694291e-03 -7.222159607726776e-02
0.000000000000000e+00 -6.214965881694236e-03 -7.916619705795053e-02
2.071655293898102e-03 -8.286621175592285e-03 -7.916619705795046e-02
2.071655293897962e-03 -8.286621175592259e-03 -7.222159607726712e-02
2.071655293897947e-03 -6.214965881694136e-03 -7.222159607726708e-02
2.071655293897974e-03 -6.214965881694153e-03 -7.916619705795086e-02
0.000000000000000e+00 -8.286621175592370e-03 -7.222159607726708e-02
0.000000000000000e+00 -8.286621175592300e-03 -6.527699509658429e-02
0.000000000000000e+00 -6.214965881694222e-03 -6.527699509658454e-02
0.000000000000000e+00 -6.214965881694291e-03 -7.222159607726776e-02
2.071655293897962e-03 -8.286621175592259e-03 -7.222159607726712e-02
2.071655293897938e-03 -8.286621175592198e-03 -6.527699509658466e-02
2.071655293898102e-03 -6.214965881694258e-03 -6.527699509658386e-02
2.071655293897947e-03 -6.214965881694136e-03 -7.222159607726708e-02
0.000000000000000e+00 -6.214965881694180e-03 -1.000000000000000e-01
0.000000000000000e+00 -6.214965881694190e-03 -9.305539901931686e-02
0.000000000000000e+00 -4.143310587796146e-03 -9.305539901931682e-02
0.000000000000000e+00 -4.143310587796081e-03 -1.000000000000000e-01
2.071655293898145e-03 -6.214965881694190e-03 -1.000000000000000e-01
2.071655293898000e-03 -6.214965881694104e-03 -9.305539901931686e-02
2.071655293898119e-03 -4.143310587796158e-03 -9.305539901931686e-02
2.071655293897870e-03 -4.143310587796091e-03 -1.000000000000000e-01
0.000000000000000e+00 -6.214965881694190e-03 -9.305539901931686e-02
0.000000000000000e+00 -6.214965881694186e-03 -8.611079803863389e-02
0.000000000000000e+00 -4.143310587796063e-03 -8.611079803863361e-02
0.000000000000000e+00 -4.143310587796146e-03 -9.305539901931682e-02
2.071655293898000e-03 -6.214965881694104e-03 -9.305539901931686e-02
2.071655293898072e-03 -6.214965881694194e-03 -8.611079803863378e-02
2.071655293898177e-03 -4.143310587796152e-03 -8.611079803863374e-02
2.071655293898119e-03 -4.143310587796158e-03 -9.305539901931686e-02
0.000000000000000e+00 -6.214965881694186e-03 -8.611079803863389e-02
0.000000000000000e+00 -6.214965881694236e-03 -7.916619705795053e-02
0.000000000000000e+00 -4.143310587796170e-03 -7.916619705795029e-02
0.000000000000000e+00 -4.143310587796063e-03 -8.611079803863361e-02
2.071655293898072e-03 -6.214965881694194e-03 -8.611079803863378e-02
2.071655293897974e-03 -6.214965881694153e-03 -7.916619705795086e-02
2.071655293898023e-03 -4.143310587796194e-03 -7.916619705795075e-02
2.071655293898177e-03 -4.143310587796152e-03 -8.611079803863374e-02
0.000000000000000e+00 -6.214965881694236e-03 -7.916619705795053e-02
0.000000000000000e+00 -6.214965881694291e-03 -7.222159607726776e-02
0.000000000000000e+00 -4.143310587796261e-03 -7.222159607726786e-02
0.000000000000000e+00 -4.143310587796170e-03 -7.916619705795029e-02
2.071655293897974e-03 -6.214965881694153e-03 -7.916619705795086e-02
2.071655293897947e-03 -6.214965881694136e-03 -7.222159607726708e-02
2.071655293898153e-03 -4.143310587796119e-03 -7.222159607726752e-02
2.071655293898023e-03 -4.143310587796194e-03 -7.916619705795075e-02
0.000000000000000e+00 -6.214965881694291e-03 -7.222159607726776e-02
0.000000000000000e+00 -6.214965881694222e-03 -6.527699509658454e-02
0.000000000000000e+00 -4.143310587796174e-03 -6.527699509658427e-02
0.000000000000000e+00 -4.143310587796261e-03 -7.222159607726786e-02
2.071655293897947e-03 -6.214965881694136e-03 -7.222159607726708e-02
2.071655293898102e-03 -6.214965881694258e-03 -6.527699509658386e-02
2.071655293897931e-03 -4.143310587796154e-03 -6.527699509658424e-02
2.071655293898153e-03 -4.143310587796119e-03 -7.222159607726752e-02
0.000000000000000e+00 -4.143310587796081e-03 -1.000000000000000e-01
0.000000000000000e+00 -4.143310587796146e-03 -9.305539901931682e-02
0.000000000000000e+00 -2.071655293897965e-03 -9.305539901931700e-02
0.000000000000000e+00 -2.071655293898144e-03 -1.000000000000000e-01
2.071655293897870e-03 -4.143310587796091e-03 -1.000000000000000e-01
2.071655293898119e-03 -4.143310587796158e-03 -9.305539901931686e-02
2.071655293897833e-03 -2.071655293897901e-03 -9.305539901931698e-02
2.071655293898069e-03 -2.071655293897850e-03 -1.000000000000000e-01
0.000000000000000e+00 -4.143310587796146e-03 -9.305539901931682e-02
0.000000000000000e+00 -4.143310587796063e-03 -8.611079803863361e-02
0.000000000000000e+00 -2.071655293898127e-03 -8.611079803863361e-02
0.000000000000000e+00 -2.071655293897965e-03 -9.305539901931700e-02
2.071655293898119e-03 -4.143310587796158e-03 -9.305539901931686e-02
2.071655293898177e-03 -4.143310587796152e-03 -8.611079803863374e-02
2.071655293897943e-03 -2.071655293897948e-03 -8.611079803863388e-02
2.071655293897833e-03 -2.071655293897901e-03 -9.305539901931698e-02
0.000000000000000e+00 -4.143310587796063e-03 -8.611079803863361e-02
0.000000000000000e+00 -4.143310587796170e-03 -7.916619705795029e-02
0.000000000000000e+00 -2.071655293898005e-03 -7.916619705795068e-02
0.000000000000000e+00 -2.071655293898127e-03 -8.611079803863361e-02
2.071655293898177e-03 -4.143310587796152e-03 -8.611079803863374e-02
2.071655293898023e-03 -4.143310587796194e-03 -7.916619705795075e-02
2.071655293898074e-03 -2.071655293898042e-03 -7.916619705795083e-02
2.071655293897943e-03 -2.071655293897948e-03 -8.611079803863388e-02
0.000000000000000e+00 -4.143310587796170e-03 -7.916619705795029e-02
0.000000000000000e+00 -4.143310587796261e-03 -7.222159607726786e-02
0.000000000000000e+00 -2.071655293898118e-03 -7.222159607726764e-02
0.000000000000000e+00 -2.071655293898005e-03 -7.916619705795068e-02
2.071655293898023e-03 -4.143310587796194e-03 -7.916619705795075e-02
2.071655293898153e-03 -4.143310587796119e-03 -7.222159607726752e-02
2.071655293898051e-03 -2.071655293898130e-03 -7.222159607726746e-02
2.071655293898074e-03 -2.071655293898042e-03 -7.916619705795083e-02
0.000000000000000e+00 -4.143310587796261e-03 -7.222159607726786e-02
0.000000000000000e+00 -4.143310587796174e-03 -6.527699509658427e-02
0.000000000000000e+00 -2.071655293898183e-03 -6.527699509658391e-02
0.000000000000000e+00 -2.071655293898118e-03 -7.222159607726764e-02
2.071655293898153e-03 -4.143310587796119e-03 -7.222159607726752e-02
2.071655293897931e-03 -4.143310587796154e-03 -6.527699509658424e-02
2.071655293898081e-03 -2.071655293897989e-03 -6.527699509658437e-02
2.071655293898051e-03 -2.071655293898130e-03 -7.222159607726746e-02
0.000000000000000e+00 -2.071655293898144e-03 -1.000000000000000e-01
0.000000000000000e+00 -2.071655293897965e-03 -9.305539901931700e-02
0.000000000000000e+00 0.000000000000000e+00 -9.305539901931703e-02
0.000000000000000e+00 0.000000000000000e+00 -1.000000000000000e-01
2.071655293898069e-03 -2.071655293897850e-03 -1.000000000000000e-01
2.071655293897833e-03 -2.071655293897901e-03 -9.305539901931698e-02
2.071655293897921e-03 0.000000000000000e+00 -9.305539901931714e-02
2.071655293898114e-03 0.000000000000000e+00 -1.000000000000000e-01
0.000000000000000e+00 -2.071655293897965e-03 -9.305539901931700e-02
0.000000000000000e+00 -2.071655293898127e-03 -8.611079803863361e-02
0.000000000000000e+00 0.000000000000000e+00 -8.611079803863382e-02
0.000000000000000e+00 0.000000000000000e+00 -9.305539901931703e-02
2.071655293897833e-03 -2.071655293897901e-03 -9.305539901931698e-02
2.071655293897943e-03 -2.071655293897948e-03 -8.611079803863388e-02
2.071655293897780e-03 0.000000000000000e+00 -8.611079803863381e-02
2.071655293897921e-03 0.000000000000000e+00 -9.305539901931714e-02
0.000000000000000e+00 -2.071655293898127e-03 -8.611079803863361e-02
0.000000000000000e+00 -2.071655293898005e-03 -7.916619705795068e-02
0.000000000000000e+00 0.000000000000000e+00 -7.916619705795050e-02
0.000000000000000e+00 0.000000000000000e+00 -8.611079803863382e-02
2.071655293897943e-03 -2.071655293897948e-03 -8.611079803863388e-02
2.071655293898074e-03 -2.071655293898042e-03 -7.916619705795083e-02
2.071655293898350e-03 0.000000000000000e+00 -7.916619705795090e-02
2.071655293897780e-03 0.000000000000000e+00 -8.611079803863381e-02
0.000000000000000e+00 -2.071655293898005e-03 -7.916619705795068e-02
0.000000000000000e+00 -2.071655293898118e-03 -7.222159607726764e-02
0.000000000000000e+00 0.000000000000000e+00 -7.222159607726783e-02
0.000000000000000e+00 0.000000000000000e+00 -7.916619705795050e-02
2.071655293898074e-03 -2.071655293898042e-03 -7.916619705795083e-02
2.071655293898051e-03 -2.071655293898130e-03 -7.222159607726746e-02
2.071655293898084e-03 0.000000000000000e+00 -7.222159607726743e-02
2.071655293898350e-03 0.000000000000000e+00 -7.916619705795090e-02
0.000000000000000e+00 -2.071655293898118e-03 -7.222159607726764e-02
0.000000000000000e+00 -2.071655293898183e-03 -6.527699509658391e-02
0.000000000000000e+00 0.000000000000000e+00 -6.527699509658434e-02
0.000000000000000e+00 0.000000000000000e+00 -7.222159607726783e-02
2.071655293898051e-03 -2.071655293898130e-03 -7.222159607726746e-02
2.071655293898081e-03 -2.071655293897989e-03 -6.527699509658437e-02
2.071655293898219e-03 0.000000000000000e+00 -6.527699509658444e-02
2.071655293898084e-03 0.000000000000000e+00 -7.222159607726743e-02
2.071655293898226e-03 -1.035827646949043e-02 -1.000000000000000e-01
2.071655293898054e-03 -1.035827646949036e-02 -9.305539901931691e-02
2.071655293898130e-03 -8.286621175592260e-03 -9.305539901931684e-02
2.071655293898118e-03 -8.286621175592273e-03 -1.000000000000000e-01
4.143310587796128e-03 -1.035827646948997e-02 -1.000000000000000e-01
4.143310587796166e-03 -1.035827646949033e-02 -9.305539901931686e-02
4.143310587796157e-03 -8.286621175592129e-03 -9.305539901931691e-02
4.143310587796279e-03 -8.286621175592354e-03 -1.000000000000000e-01
2.071655293898054e-03 -1.035827646949036e-02 -9.305539901931691e-02
2.071655293898266e-03 -1.035827646949046e-02 -8.611079803863370e-02
2.071655293897938e-03 -8.286621175592267e-03 -8.611079803863377e-02
2.071655293898130e-03 -8.286621175592260e-03 -9.305539901931684e-02
4.143310587796166e-03 -1.035827646949033e-02 -9.305539901931686e-02
4.143310587795997e-03 -1.035827646949029e-02 -8.611079803863343e-02
4.143310587796295e-03 -8.286621175592241e-03 -8.611079803863374e-02
4.143310587796157e-03 -8.286621175592129e-03 -9.305539901931691e-02
2.071655293898266e-03 -1.035827646949046e-02 -8.611079803863370e-02
2.071655293898125e-03 -1.035827646949044e-02 -7.916619705795028e-02
2.071655293898102e-03 -8.286621175592285e-03 -7.916619705795046e-02
2.071655293897938e-03 -8.286621175592267e-03 -8.611079803863377e-02
4.143310587795997e-03 -1.035827646949029e-02 -8.611079803863343e-02
4.143310587796298e-03 -1.035827646949039e-02 -7.916619705795033e-02
4.143310587796126e-03 -8.286621175592203e-03 -7.916619705795037e-02
4.143310587796295e-03 -8.286621175592241e-03 -8.611079803863374e-02
2.071655293898125e-03 -1.035827646949044e-02 -7.916619705795028e-02
2.071655293898156e-03 -1.035827646949044e-02 -7.222159607726748e-02
2.071655293897962e-03 -8.286621175592259e-03 -7.222159607726712e-02
2.071655293898102e-03 -8.286621175592285e-03 -7.916619705795046e-02
4.143310587796298e-03 -1.035827646949039e-02 -7.916619705795033e-02
4.143310587795823e-03 -1.035827646949035e-02 -7.222159607726766e-02
4.143310587796259e-03 -8.286621175592122e-03 -7.222159607726732e-02
4.143310587796126e-03 -8.286621175592203e-03 -7.916619705795037e-02
2.071655293898156e-03 -1.035827646949044e-02 -7.222159607726748e-02
2.071655293898123e-03 -1.035827646949055e-02 -6.527699509658434e-02
2.071655293897938e-03 -8.286621175592198e-03 -6.527699509658466e-02
2.071655293897962e-03 -8.286621175592259e-03 -7.222159607726712e-02
4.143310587795823e-03 -1.035827646949035e-02 -7.222159607726766e-02
4.143310587796256e-03 -1.035827646949040e-02 -6.527699509658458e-02
4.143310587796172e-03 -8.286621175592347e-03 -6.527699509658449e-02
4.143310587796259e-03 -8.286621175592122e-03 -7.222159607726732e-02
2.071655293898118e-03 -8.286621175592273e-03 -1.000000000000000e-01
2.071655293898130e-03 -8.286621175592260e-03 -9.305539901931684e-02
2.071655293898000e-03 -6.214965881694104e-03 -9.305539901931686e-02
2.071655293898145e-03 -6.214965881694190e-03 -1.000000000000000e-01
4.143310587796279e-03 -8.286621175592354e-03 -1.000000000000000e-01
4.143310587796157e-03 -8.286621175592129e-03 -9.305539901931691e-02
4.143310587796230e-03 -6.214965881694242e-03 -9.305539901931689e-02
4.143310587796210e-03 -6.214965881694140e-03 -1.000000000000000e-01
2.071655293898130e-03 -8.286621175592260e-03 -9.305539901931684e-02
2.071655293897938e-03 -8.286621175592267e-03 -8.611079803863377e-02
2.071655293898072e-03 -6.214965881694194e-03 -8.611079803863378e-02
2.071655293898000e-03 -6.214965881694104e-03 -9.305539901931686e-02
4.143310587796157e-03 -8.286621175592129e-03 -9.305539901931691e-02
4.143310587796295e-03 -8.286621175592241e-03 -8.611079803863374e-02
4.143310587796102e-03 -6.214965881694086e-03 -8.611079803863357e-02
4.143310587796230e-03 -6.214965881694242e-03 -9.305539901931689e-02
2.071655293897938e-03 -8.286621175592267e-03 -8.611079803863377e-02
2.071655293898102e-03 -8.286621175592285e-03 -7.916619705795046e-02
2.071655293897974e-03 -6.214965881694153e-03 -7.916619705795086e-02
2.071655293898072e-03 -6.214965881694194e-03 -8.611079803863378e-02
4.143310587796295e-03 -8.286621175592241e-03 -8.611079803863374e-02
4.143310587796126e-03 -8.286621175592203e-03 -7.916619705795037e-02
4.143310587796242e-03 -6.214965881694096e-03 -7.916619705795051e-02
4.143310587796102e-03 -6.214965881694086e-03 -8.611079803863357e-02
2.071655293898102e-03 -8.286621175592285e-03 -7.916619705795046e-02
2.071655293897962e-03 -8.286621175592259e-03 -7.222159607726712e-02
2.071655293897947e-03 -6.214965881694136e-03 -7.222159607726708e-02
2.071655293897974e-03 -6.214965881694153e-03 -7.916619705795086e-02
4.143310587796126e-03 -8.286621175592203e-03 -7.916619705795037e-02
4.143310587796259e-03 -8.286621175592122e-03 -7.222159607726732e-02
4.143310587796086e-03 -6.214965881694220e-03 -7.222159607726765e-02
4.143310587796242e-03 -6.214965881694096e-03 -7.916619705795051e-02
2.071655293897962e-03 -8.286621175592259e-03 -7.222159607726712e-02
2.071655293897938e-03 -8.286621175592198e-03 -6.527699509658466e-02
2.071655293898102e-03 -6.214965881694258e-03 -6.527699509658386e-02
2.071655293897947e-03 -6.214965881694136e-03 -7.222159607726708e-02
4.143310587796259e-03 -8.286621175592122e-03 -7.222159607726732e-02
4.143310587796172e-03 -8.286621175592347e-03 -6.527699509658449e-02
4.143310587796128e-03 -6.214965881694144e-03 -6.527699509658438e-02
4.143310587796086e-03 -6.214965881694220e-03 -7.222159607726765e-02
2.071655293898145e-03 -6.214965881694190e-03 -1.000000000000000e-01
2.071655293898000e-03 -6.214965881694104e-03 -9.305539901931686e-02
2.071655293898119e-03 -4.143310587796158e-03 -9.305539901931686e-02
2.071655293897870e-03 -4.143310587796091e-03 -1.000000000000000e-01
4.143310587796210e-03 -6.214965881694140e-03 -1.000000000000000e-01
4.143310587796230e-03 -6.214965881694242e-03 -9.305539901931689e-02
4.143310587796182e-03 -4.143310587796105e-03 -9.305539901931700e-02
4.143310587796272e-03 -4.143310587796258e-03 -1.000000000000000e-01
2.071655293898000e-03 -6.214965881694104e-03 -9.305539901931686e-02
2.071655293898072e-03 -6.214965881694194e-03 -8.611079803863378e-02
2.071655293898177e-03 -4.143310587796152e-03 -8.611079803863374e-02
2.071655293898119e-03 -4.143310587796158e-03 -9.305539901931686e-02