<?xml version="1.0" ?> 
<!-- 
# vtk DataFile Version 3.0
-->
<VTKFile type="UnstructuredGrid" version="0.1" compressor="vtkZLibDataCompressor" byte_order="LittleEndian">
  <UnstructuredGrid>
    <FieldData>
      <DataArray type="Float64" Name="TIME" NumberOfTuples="1" format="ascii">
3.000000000000000e+00 
      </DataArray>
    </FieldData>

    <Piece NumberOfPoints="153" NumberOfCells="0" >
      <Points>
        <DataArray type="Float64" NumberOfComponents="3" format="ascii">
8.722604189151506e-01 4.890416762415440e-01 1.000000000000375e+00
1.000000000000000e+00 0.000000000000000e+00 1.000000000000375e+00
1.000000000000000e+00 0.000000000000000e+00 1.500000000000000e+00
8.722604189151504e-01 4.890416762415440e-01 1.500000000000000e+00
9.697620891119340e-01 2.440522288860948e-01 1.000000000000375e+00
1.000000000000000e+00 0.000000000000000e+00 1.250000000000094e+00
9.697620891119342e-01 2.440522288860949e-01 1.500000000000000e+00
8.722604189151507e-01 4.890416762415442e-01 1.250000000000094e+00
9.697620891119341e-01 2.440522288860949e-01 1.250000000000094e+00
4.890416762415440e-01 8.722604189151505e-01 1.000000000000375e+00
8.722604189151506e-01 4.890416762415440e-01 1.000000000000375e+00
8.722604189151504e-01 4.890416762415440e-01 1.500000000000000e+00
4.890416762415440e-01 8.722604189151504e-01 1.500000000000000e+00
7.071067809042735e-01 7.071067809042736e-01 1.000000000000375e+00
8.722604189151507e-01 4.890416762415442e-01 1.250000000000094e+00
7.071067809042735e-01 7.071067809042735e-01 1.500000000000000e+00
4.890416762415440e-01 8.722604189151505e-01 1.250000000000094e+00
7.071067809042737e-01 7.071067809042736e-01 1.250000000000094e+00
0.000000000000000e+00 1.000000000000000e+00 1.000000000000375e+00
4.890416762415440e-01 8.722604189151505e-01 1.000000000000375e+00
4.890416762415440e-01 8.722604189151504e-01 1.500000000000000e+00
0.000000000000000e+00 1.000000000000000e+00 1.500000000000000e+00
2.440522288860949e-01 9.697620891119340e-01 1.000000000000375e+00
4.890416762415440e-01 8.722604189151505e-01 1.250000000000094e+00
2.440522288860949e-01 9.697620891119340e-01 1.500000000000000e+00
0.000000000000000e+00 1.000000000000000e+00 1.250000000000094e+00
2.440522288860949e-01 9.697620891119341e-01 1.250000000000094e+00
8.722604189151506e-01 4.890416762415440e-01 4.999999999996250e-01
1.000000000000000e+00 0.000000000000000e+00 4.999999999996251e-01
1.000000000000000e+00 0.000000000000000e+00 1.000000000000375e+00
8.722604189151506e-01 4.890416762415440e-01 1.000000000000375e+00
9.697620891119340e-01 2.440522288860949e-01 4.999999999996250e-01
1.000000000000000e+00 0.000000000000000e+00 7.500000000000000e-01
9.697620891119340e-01 2.440522288860948e-01 1.000000000000375e+00
8.722604189151506e-01 4.890416762415441e-01 7.500000000000001e-01
9.697620891119342e-01 2.440522288860949e-01 7.500000000000000e-01
4.890416762415442e-01 8.722604189151506e-01 4.999999999996251e-01
8.722604189151506e-01 4.890416762415440e-01 4.999999999996250e-01
8.722604189151506e-01 4.890416762415440e-01 1.000000000000375e+00
4.890416762415440e-01 8.722604189151505e-01 1.000000000000375e+00
7.071067809042734e-01 7.071067809042736e-01 4.999999999996250e-01
8.722604189151506e-01 4.890416762415441e-01 7.500000000000001e-01
7.071067809042735e-01 7.071067809042736e-01 1.000000000000375e+00
4.890416762415440e-01 8.722604189151503e-01 7.499999999999998e-01
7.071067809042734e-01 7.071067809042736e-01 7.499999999999997e-01
0.000000000000000e+00 1.000000000000000e+00 0.000000000000000e+00
4.890416762415440e-01 8.722604189151504e-01 0.000000000000000e+00
4.890416762415442e-01 8.722604189151506e-01 4.999999999996251e-01
0.000000000000000e+00 1.000000000000000e+00 4.999999999996251e-01
2.440522288860949e-01 9.697620891119340e-01 0.000000000000000e+00
4.890416762415440e-01 8.722604189151503e-01 2.499999999999062e-01
2.440522288860949e-01 9.697620891119340e-01 4.999999999996250e-01
0.000000000000000e+00 1.000000000000000e+00 2.499999999999063e-01
2.440522288860949e-01 9.697620891119340e-01 2.499999999999062e-01
4.890416762415440e-01 8.722604189151504e-01 0.000000000000000e+00
8.722604189151504e-01 4.890416762415440e-01 0.000000000000000e+00
8.722604189151506e-01 4.890416762415440e-01 4.999999999996250e-01
4.890416762415442e-01 8.722604189151506e-01 4.999999999996251e-01
7.071067809042735e-01 7.071067809042735e-01 0.000000000000000e+00
8.722604189151505e-01 4.890416762415440e-01 2.499999999999062e-01
7.071067809042734e-01 7.071067809042736e-01 4.999999999996250e-01
4.890416762415440e-01 8.722604189151503e-01 2.499999999999062e-01
7.071067809042734e-01 7.071067809042735e-01 2.499999999999062e-01
8.722604189151504e-01 4.890416762415440e-01 0.000000000000000e+00
1.000000000000000e+00 0.000000000000000e+00 0.000000000000000e+00
1.000000000000000e+00 0.000000000000000e+00 4.999999999996251e-01
8.722604189151506e-01 4.890416762415440e-01 4.999999999996250e-01
9.697620891119342e-01 2.440522288860949e-01 0.000000000000000e+00
1.000000000000000e+00 0.000000000000000e+00 2.499999999999063e-01
9.697620891119340e-01 2.440522288860949e-01 4.999999999996250e-01
8.722604189151505e-01 4.890416762415440e-01 2.499999999999062e-01
9.697620891119341e-01 2.440522288860949e-01 2.499999999999063e-01
0.000000000000000e+00 1.000000000000000e+00 4.999999999996251e-01
4.890416762415442e-01 8.722604189151506e-01 4.999999999996251e-01
4.890416762415440e-01 8.722604189151505e-01 1.000000000000375e+00
0.000000000000000e+00 1.000000000000000e+00 1.000000000000375e+00
2.440522288860949e-01 9.697620891119340e-01 4.999999999996250e-01
4.890416762415440e-01 8.722604189151503e-01 7.499999999999998e-01
2.440522288860949e-01 9.697620891119340e-01 1.000000000000375e+00
0.000000000000000e+00 1.000000000000000e+00 7.500000000000000e-01
2.440522288860949e-01 9.697620891119340e-01 7.499999999999998e-01
1.500000000000000e+00 3.000000000000000e-01 3.000000000000000e+00
2.000000000000000e+00 3.000000000000000e-01 3.000000000000000e+00
2.000000000000000e+00 3.000000000000000e-01 3.500000000000000e+00
1.500000000000000e+00 3.000000000000000e-01 3.500000000000000e+00
1.750000000000000e+00 2.999999999999999e-01 3.000000000000000e+00
2.000000000000000e+00 3.000000000000000e-01 3.250000000000000e+00
1.750000000000000e+00 3.000000000000000e-01 3.500000000000000e+00
1.500000000000000e+00 3.000000000000000e-01 3.250000000000000e+00
1.750000000000000e+00 3.000000000000000e-01 3.250000000000000e+00
1.000000000000000e+00 3.000000000000000e-01 3.000000000000000e+00
1.500000000000000e+00 3.000000000000000e-01 3.000000000000000e+00
1.500000000000000e+00 3.000000000000000e-01 3.500000000000000e+00
1.000000000000000e+00 3.000000000000000e-01 3.500000000000000e+00
1.250000000000000e+00 2.999999999999999e-01 3.000000000000000e+00
1.500000000000000e+00 3.000000000000000e-01 3.250000000000000e+00
1.250000000000000e+00 2.999999999999999e-01 3.500000000000000e+00
1.000000000000000e+00 3.000000000000000e-01 3.250000000000000e+00
1.250000000000000e+00 3.000000000000000e-01 3.250000000000000e+00
5.000000000000000e-01 3.000000000000000e-01 3.000000000000000e+00
1.000000000000000e+00 3.000000000000000e-01 3.000000000000000e+00
1.000000000000000e+00 3.000000000000000e-01 3.500000000000000e+00
5.000000000000000e-01 3.000000000000000e-01 3.500000000000000e+00
7.500000000000000e-01 2.999999999999999e-01 3.000000000000000e+00
1.000000000000000e+00 3.000000000000000e-01 3.250000000000000e+00
7.500000000000000e-01 2.999999999999999e-01 3.500000000000000e+00
5.000000000000000e-01 3.000000000000000e-01 3.250000000000000e+00
7.500000000000000e-01 3.000000000000000e-01 3.250000000000000e+00
0.000000000000000e+00 3.000000000000000e-01 3.000000000000000e+00
5.000000000000000e-01 3.000000000000000e-01 3.000000000000000e+00
5.000000000000000e-01 3.000000000000000e-01 3.500000000000000e+00
0.000000000000000e+00 3.000000000000000e-01 3.500000000000000e+00
2.500000000000000e-01 3.000000000000000e-01 3.000000000000000e+00
5.000000000000000e-01 3.000000000000000e-01 3.250000000000000e+00
2.500000000000000e-01 3.000000000000000e-01 3.500000000000000e+00
0.000000000000000e+00 3.000000000000000e-01 3.250000000000000e+00
2.500000000000000e-01 3.000000000000000e-01 3.250000000000000e+00
0.000000000000000e+00 3.000000000000000e-01 2.500000000000000e+00
5.000000000000000e-01 3.000000000000000e-01 2.500000000000000e+00
5.000000000000000e-01 3.000000000000000e-01 3.000000000000000e+00
0.000000000000000e+00 3.000000000000000e-01 3.000000000000000e+00
2.500000000000000e-01 3.000000000000000e-01 2.500000000000000e+00
5.000000000000000e-01 3.000000000000000e-01 2.750000000000000e+00
2.500000000000000e-01 3.000000000000000e-01 3.000000000000000e+00
0.000000000000000e+00 3.000000000000000e-01 2.750000000000000e+00
2.500000000000000e-01 3.000000000000000e-01 2.750000000000000e+00
5.000000000000000e-01 3.000000000000000e-01 2.500000000000000e+00
1.000000000000000e+00 3.000000000000000e-01 2.500000000000000e+00
1.000000000000000e+00 3.000000000000000e-01 3.000000000000000e+00
5.000000000000000e-01 3.000000000000000e-01 3.000000000000000e+00
7.500000000000000e-01 2.999999999999999e-01 2.500000000000000e+00
1.000000000000000e+00 3.000000000000000e-01 2.750000000000000e+00
7.500000000000000e-01 2.999999999999999e-01 3.000000000000000e+00
5.000000000000000e-01 3.000000000000000e-01 2.750000000000000e+00
7.500000000000000e-01 3.000000000000000e-01 2.750000000000000e+00
1.000000000000000e+00 3.000000000000000e-01 2.500000000000000e+00
1.500000000000000e+00 3.000000000000000e-01 2.500000000000000e+00
1.500000000000000e+00 3.000000000000000e-01 3.000000000000000e+00
1.000000000000000e+00 3.000000000000000e-01 3.000000000000000e+00
1.250000000000000e+00 2.999999999999999e-01 2.500000000000000e+00
1.500000000000000e+00 3.000000000000000e-01 2.750000000000000e+00
1.250000000000000e+00 2.999999999999999e-01 3.000000000000000e+00
1.000000000000000e+00 3.000000000000000e-01 2.750000000000000e+00
1.250000000000000e+00 3.000000000000000e-01 2.750000000000000e+00
1.500000000000000e+00 3.000000000000000e-01 2.500000000000000e+00
2.000000000000000e+00 3.000000000000000e-01 2.500000000000000e+00
2.000000000000000e+00 3.000000000000000e-01 3.000000000000000e+00
1.500000000000000e+00 3.000000000000000e-01 3.000000000000000e+00
1.750000000000000e+00 3.000000000000000e-01 2.500000000000000e+00
2.000000000000000e+00 3.000000000000000e-01 2.750000000000000e+00
1.750000000000000e+00 2.999999999999999e-01 3.000000000000000e+00
1.500000000000000e+00 3.000000000000000e-01 2.750000000000000e+00
1.750000000000000e+00 3.000000000000000e-01 2.750000000000000e+00
        </DataArray>
      </Points>

      <Cells>
        <DataArray type="Int32" Name="connectivity" format="ascii">
0 1 2 3 4 5 6 7 8 9 10 11 12 13 14 15 16 17 18 19 20 21 22 23 24 25 26 27 28 29 30 31 32 33 34 35 36 37 38 39 40 41 42 43 44 45 46 47 48 49 50 51 52 53 54 55 56 57 58 59 60 61 62 63 64 65 66 67 68 69 70 71 72 73 74 75 76 77 78 79 80 81 82 83 84 85 86 87 88 89 90 91 92 93 94 95 96 97 98 99 100 101 102 103 104 105 106 107 108 109 110 111 112 113 114 115 116 117 118 119 120 121 122 123 124 125 126 127 128 129 130 131 132 133 134 135 136 137 138 139 140 141 142 143 144 145 146 147 148 149 150 151 152 
        </DataArray>
        <DataArray type="Int32" Name="offsets" format="ascii">

        </DataArray>
        <DataArray type="UInt8" Name="types" format="ascii">

        </DataArray>
      </Cells>

  <PointData>
        <DataArray type="Float64" Name="coupling_id" format="ascii">
1.000000000000000e+00
1.000000000000000e+00
1.000000000000000e+00
1.000000000000000e+00
1.000000000000000e+00
1.000000000000000e+00
1.000000000000000e+00
1.000000000000000e+00
1.000000000000000e+00
1.000000000000000e+00
1.000000000000000e+00
1.000000000000000e+00
1.000000000000000e+00
1.000000000000000e+00
1.000000000000000e+00
1.000000000000000e+00
1.000000000000000e+00
1.000000000000000e+00
1.000000000000000e+00
1.000000000000000e+00
1.000000000000000e+00
1.000000000000000e+00
1.000000000000000e+00
1.000000000000000e+00
1.000000000000000e+00
1.000000000000000e+00
1.000000000000000e+00
1.000000000000000e+00
1.000000000000000e+00
1.000000000000000e+00
1.000000000000000e+00
1.000000000000000e+00
1.000000000000000e+00
1.000000000000000e+00
1.000000000000000e+00
1.000000000000000e+00
1.000000000000000e+00
1.000000000000000e+00
1.000000000000000e+00
1.000000000000000e+00
1.000000000000000e+00
1.000000000000000e+00
1.000000000000000e+00
1.000000000000000e+00
1.000000000000000e+00
1.000000000000000e+00
1.000000000000000e+00
1.000000000000000e+00
1.000000000000000e+00
1.000000000000000e+00
1.000000000000000e+00
1.000000000000000e+00
1.000000000000000e+00
1.000000000000000e+00
1.000000000000000e+00
1.000000000000000e+00
1.000000000000000e+00
1.000000000000000e+00
1.000000000000000e+00
1.000000000000000e+00
1.000000000000000e+00
1.000000000000000e+00
1.000000000000000e+00
1.000000000000000e+00
1.000000000000000e+00
1.000000000000000e+00
1.000000000000000e+00
1.000000000000000e+00
1.000000000000000e+00
1.000000000000000e+00
1.000000000000000e+00
1.000000000000000e+00
1.000000000000000e+00
1.000000000000000e+00
1.000000000000000e+00
1.000000000000000e+00
1.000000000000000e+00
1.000000000000000e+00
1.000000000000000e+00
1.000000000000000e+00
1.000000000000000e+00
2.000000000000000e+00
2.000000000000000e+00
2.000000000000000e+00
2.000000000000000e+00
2.000000000000000e+00
2.000000000000000e+00
2.000000000000000e+00
2.000000000000000e+00
2.000000000000000e+00
2.000000000000000e+00
2.000000000000000e+00
2.000000000000000e+00
2.000000000000000e+00
2.000000000000000e+00
2.000000000000000e+00
2.000000000000000e+00
2.000000000000000e+00
2.000000000000000e+00
2.000000000000000e+00
2.000000000000000e+00
2.000000000000000e+00
2.000000000000000e+00
2.000000000000000e+00
2.000000000000000e+00
2.000000000000000e+00
2.000000000000000e+00
2.000000000000000e+00
2.000000000000000e+00
2.000000000000000e+00
2.000000000000000e+00
2.000000000000000e+00
2.000000000000000e+00
2.000000000000000e+00
2.000000000000000e+00
2.000000000000000e+00
2.000000000000000e+00
2.000000000000000e+00
2.000000000000000e+00
2.000000000000000e+00
2.000000000000000e+00
2.000000000000000e+00
2.000000000000000e+00
2.000000000000000e+00
2.000000000000000e+00
2.000000000000000e+00
2.000000000000000e+00
2.000000000000000e+00
2.000000000000000e+00
2.000000000000000e+00
2.000000000000000e+00
2.000000000000000e+00
2.000000000000000e+00
2.000000000000000e+00
2.000000000000000e+00
2.000000000000000e+00
2.000000000000000e+00
2.000000000000000e+00
2.000000000000000e+00
2.000000000000000e+00
2.000000000000000e+00
2.000000000000000e+00
2.000000000000000e+00
2.000000000000000e+00
2.000000000000000e+00
2.000000000000000e+00
2.000000000000000e+00
2.000000000000000e+00
2.000000000000000e+00
2.000000000000000e+00
2.000000000000000e+00
2.000000000000000e+00
2.000000000000000e+00
        </DataArray>
        <DataArray type="Float64" Name="displacement" NumberOfComponents="3" format="ascii">
5.580596220682899e-02 1.530126080019948e-01 -7.520397154350267e-04
1.844072987308381e-01 2.103300874728061e-01 -1.577179152950692e-02
1.432196856571331e-01 1.530261994490195e-01 -2.515471015681858e-02
3.588675729272084e-02 1.056703996403434e-01 -2.567783651883815e-03
1.165160029527105e-01 1.918309573702559e-01 -3.414491567695688e-03
1.618157136324754e-01 1.794605745223088e-01 -2.313259034563453e-02
8.545186175516528e-02 1.383297089161977e-01 -1.020054506204304e-02
4.633066255747631e-02 1.284279174559727e-01 -1.846508894759458e-03
1.009815992566578e-01 1.625924314334504e-01 -8.069666007074705e-03
-8.901953279970343e-03 5.215605104980314e-02 -3.555629035869368e-03
5.580596220682899e-02 1.530126080019948e-01 -7.520397154350267e-04
3.588675729272084e-02 1.056703996403434e-01 -2.567783651883815e-03
-7.509369180694669e-03 2.886045240052559e-02 2.164767749289087e-03
1.164758912426644e-02 1.023272687164219e-01 -3.000006080347339e-03
4.633066255747631e-02 1.284279174559727e-01 -1.846508894759458e-03
2.923318142071585e-03 6.482230371668973e-02 2.371461845367406e-04
-8.324439154513197e-03 4.288040507395841e-02 -4.365933372627584e-04
7.412871362615814e-03 8.481073082606350e-02 -1.024157843786844e-03
0.000000000000000e+00 0.000000000000000e+00 0.000000000000000e+00
-8.901953279970343e-03 5.215605104980314e-02 -3.555629035869368e-03
-7.509369180694669e-03 2.886045240052559e-02 2.164767749289087e-03
0.000000000000000e+00 0.000000000000000e+00 0.000000000000000e+00
-1.025558229932499e-02 1.522003415355133e-02 -2.440599507868013e-03
-8.324439154513197e-03 4.288040507395841e-02 -4.365933372627584e-04
-4.886746477111847e-03 5.774534342204762e-03 2.246424069520137e-03
0.000000000000000e+00 0.000000000000000e+00 0.000000000000000e+00
-7.743611761148045e-03 1.250179841054211e-02 -1.055923769612832e-04
8.042608106280003e-02 1.984275431772031e-01 -6.624532081704326e-04
2.489772093956779e-01 2.822335926842276e-01 4.718785827912408e-03
1.844072987308381e-01 2.103300874728061e-01 -1.577179152950692e-02
5.580596220682899e-02 1.530126080019948e-01 -7.520397154350267e-04
1.615612405271715e-01 2.525589382950299e-01 4.662467443375340e-03
2.128444582270212e-01 2.448495047202617e-01 -5.634078030837264e-03
1.165160029527105e-01 1.918309573702559e-01 -3.414491567695688e-03
6.645649034166079e-02 1.771154802514441e-01 -8.910989340493725e-05
1.355456807430154e-01 2.228761664247880e-01 1.563409250872838e-03
-8.576863904023402e-03 6.262994153048151e-02 -6.791290256760840e-03
8.042608106280003e-02 1.984275431772031e-01 -6.624532081704326e-04
5.580596220682899e-02 1.530126080019948e-01 -7.520397154350267e-04
-8.901953279970343e-03 5.215605104980314e-02 -3.555629035869368e-03
1.979655751672682e-02 1.301180031716063e-01 -6.378713958874904e-03
6.645649034166079e-02 1.771154802514441e-01 -8.910989340493725e-05
1.164758912426644e-02 1.023272687164219e-01 -3.000006080347339e-03
-9.050049036622487e-03 5.822626998350866e-02 -6.053480843414172e-03
1.573848123848964e-02 1.174152489706681e-01 -5.011243220321981e-03
0.000000000000000e+00 0.000000000000000e+00 0.000000000000000e+00
-1.369049044872378e-02 6.366758049991894e-02 -8.421916658517730e-03
-8.576863904023402e-03 6.262994153048151e-02 -6.791290256760840e-03
0.000000000000000e+00 0.000000000000000e+00 0.000000000000000e+00
-1.085107706172495e-02 9.519635293604556e-03 -6.532301070419486e-03
-9.463357751587242e-03 6.467455019963875e-02 -7.127840965324123e-03
-1.153750124692771e-02 1.502471291490304e-02 -3.875655517423027e-03
0.000000000000000e+00 0.000000000000000e+00 0.000000000000000e+00
-1.083709309180281e-02 1.319392210008197e-02 -4.094093673887717e-03
-1.369049044872378e-02 6.366758049991894e-02 -8.421916658517730e-03
1.184220382661121e-01 2.401580062637653e-01 9.623318658934586e-03
8.042608106280003e-02 1.984275431772031e-01 -6.624532081704326e-04
-8.576863904023402e-03 6.262994153048151e-02 -6.791290256760840e-03
2.092119863840736e-02 1.482604981209978e-01 -3.391591015369100e-03
9.773963137075115e-02 2.188184880807704e-01 1.313249817025797e-03
1.979655751672682e-02 1.301180031716063e-01 -6.378713958874904e-03
-9.463357751587242e-03 6.467455019963875e-02 -7.127840965324123e-03
2.209855197726307e-02 1.404086974960794e-01 -6.154726991917825e-03
1.184220382661121e-01 2.401580062637653e-01 9.623318658934586e-03
3.787272473014227e-01 3.629166785717877e-01 3.726247376628109e-02
2.489772093956779e-01 2.822335926842276e-01 4.718785827912408e-03
8.042608106280003e-02 1.984275431772031e-01 -6.624532081704326e-04
2.485814816649855e-01 3.171741188608370e-01 2.496626795007660e-02
3.014049923745010e-01 3.218125758171700e-01 1.808492733188391e-02
1.615612405271715e-01 2.525589382950299e-01 4.662467443375340e-03
9.773963137075115e-02 2.188184880807704e-01 1.313249817025797e-03
1.980705512021215e-01 2.832135100754868e-01 1.081823600978185e-02
0.000000000000000e+00 0.000000000000000e+00 0.000000000000000e+00
-8.576863904023402e-03 6.262994153048151e-02 -6.791290256760840e-03
-8.901953279970343e-03 5.215605104980314e-02 -3.555629035869368e-03
0.000000000000000e+00 0.000000000000000e+00 0.000000000000000e+00
-1.153750124692771e-02 1.502471291490304e-02 -3.875655517423027e-03
-9.050049036622487e-03 5.822626998350866e-02 -6.053480843414172e-03
-1.025558229932499e-02 1.522003415355133e-02 -2.440599507868013e-03
0.000000000000000e+00 0.000000000000000e+00 0.000000000000000e+00
-1.174582361885282e-02 1.552806463406309e-02 -3.962614746819915e-03
-2.055770635721832e-01 5.598501637693136e-01 4.812498790301989e-02
-3.078151907469922e-01 8.534159152875895e-01 3.883566423818730e-02
-3.869199333938336e-01 9.733202543335824e-01 1.517516451664358e-02
-2.688403628549578e-01 6.317871219838365e-01 3.774900768050315e-02
-2.563970496164947e-01 7.049971888551995e-01 4.439650713159438e-02
-3.476364419869764e-01 9.072991538985702e-01 2.757751155304566e-02
-3.243999432022271e-01 8.021298325953006e-01 2.917563349501417e-02
-2.349994780751661e-01 5.961890821496985e-01 4.499216842321729e-02
-2.887202287877892e-01 7.514071948706784e-01 3.892128248595395e-02
-1.163809896273836e-01 2.918335171672491e-01 3.842622414126673e-02
-2.055770635721832e-01 5.598501637693136e-01 4.812498790301989e-02
-2.688403628549578e-01 6.317871219838365e-01 3.774900768050315e-02
-1.695899225312011e-01 3.232481751919179e-01 3.649904895131639e-02
-1.580175908353740e-01 4.210904149124808e-01 4.710644681779907e-02
-2.349994780751661e-01 5.961890821496985e-01 4.499216842321729e-02
-2.179880650614683e-01 4.696929577618294e-01 4.036643139273099e-02
-1.424499968742305e-01 3.115664248058428e-01 3.814605411901395e-02
-1.863005980402621e-01 4.475928230299722e-01 4.499786156688579e-02
-5.137586429920205e-02 8.832079231395301e-02 1.255492772171740e-02
-1.163809896273836e-01 2.918335171672491e-01 3.842622414126673e-02
-1.695899225312011e-01 3.232481751919179e-01 3.649904895131639e-02
-8.154141330267090e-02 9.533230437397527e-02 2.325578565571185e-02
-8.079212557354776e-02 1.787025998592097e-01 2.570286830028579e-02
-1.424499968742305e-01 3.115664248058428e-01 3.814605411901395e-02
-1.239922627747403e-01 1.969591616155005e-01 2.963334036829712e-02
-6.776917452473691e-02 9.771532224790830e-02 1.682262508856391e-02
-1.030665604210598e-01 1.932329152781934e-01 2.767491798957966e-02
0.000000000000000e+00 0.000000000000000e+00 0.000000000000000e+00
-5.137586429920205e-02 8.832079231395301e-02 1.255492772171740e-02
-8.154141330267090e-02 9.533230437397527e-02 2.325578565571185e-02
0.000000000000000e+00 0.000000000000000e+00 0.000000000000000e+00
-2.536691828210128e-02 2.673696790353219e-02 2.736079317606777e-03
-6.776917452473691e-02 9.771532224790830e-02 1.682262508856391e-02
-4.071733781206627e-02 2.685133874344187e-02 1.437510035309941e-02
0.000000000000000e+00 0.000000000000000e+00 0.000000000000000e+00
-3.419970058460331e-02 3.123167429512969e-02 7.095533173020030e-03
0.000000000000000e+00 0.000000000000000e+00 0.000000000000000e+00
-1.209490936360846e-02 5.006435631557976e-02 1.012830339428294e-02
-5.137586429920205e-02 8.832079231395301e-02 1.255492772171740e-02
0.000000000000000e+00 0.000000000000000e+00 0.000000000000000e+00
-2.322618036164847e-03 7.899185108012297e-03 1.381555896198261e-03
-3.270370259063599e-02 7.111503139540998e-02 1.035578875651000e-02
-2.536691828210128e-02 2.673696790353219e-02 2.736079317606777e-03
0.000000000000000e+00 0.000000000000000e+00 0.000000000000000e+00
-1.461066580060633e-02 1.756140852303206e-02 9.477498657148864e-04
-1.209490936360846e-02 5.006435631557976e-02 1.012830339428294e-02
-6.425400098128620e-02 2.300738877774742e-01 3.730933451080976e-02
-1.163809896273836e-01 2.918335171672491e-01 3.842622414126673e-02
-5.137586429920205e-02 8.832079231395301e-02 1.255492772171740e-02
-3.188324625456940e-02 1.247158213097259e-01 2.313823282292837e-02
-9.058246844496665e-02 2.645143666873790e-01 3.794537795841757e-02
-8.079212557354776e-02 1.787025998592097e-01 2.570286830028579e-02
-3.270370259063599e-02 7.111503139540998e-02 1.035578875651000e-02
-5.709050519658931e-02 1.552397302419276e-01 2.407227775865461e-02
-6.425400098128620e-02 2.300738877774742e-01 3.730933451080976e-02
-1.450275414724052e-01 4.843298190651225e-01 5.356112272867719e-02
-2.055770635721832e-01 5.598501637693136e-01 4.812498790301989e-02
-1.163809896273836e-01 2.918335171672491e-01 3.842622414126673e-02
-1.037783679263633e-01 3.539935542016610e-01 4.874812547402607e-02
-1.768330933649493e-01 5.226153987665121e-01 5.002284603360829e-02
-1.580175908353740e-01 4.210904149124808e-01 4.710644681779907e-02
-9.058246844496665e-02 2.645143666873790e-01 3.794537795841757e-02
-1.311673964597568e-01 3.899644273296212e-01 4.794044787650176e-02
-1.450275414724052e-01 4.843298190651225e-01 5.356112272867719e-02
-2.367735046647659e-01 7.622439075723653e-01 5.627400248207115e-02
-3.078151907469922e-01 8.534159152875895e-01 3.883566423818730e-02
-2.055770635721832e-01 5.598501637693136e-01 4.812498790301989e-02
-1.890198206937574e-01 6.205806232334825e-01 5.498939286721027e-02
-2.700097036481615e-01 8.067157595093009e-01 4.853827655391374e-02
-2.563970496164947e-01 7.049971888551995e-01 4.439650713159438e-02
-1.768330933649493e-01 5.226153987665121e-01 5.002284603360829e-02
-2.242302866109491e-01 6.617662023693165e-01 4.871473480199429e-02
        </DataArray>
        <DataArray type="Float64" Name="normal_averaged" NumberOfComponents="3" format="ascii">
0.000000000000000e+00 0.000000000000000e+00 0.000000000000000e+00
0.000000000000000e+00 0.000000000000000e+00 0.000000000000000e+00
0.000000000000000e+00 0.000000000000000e+00 0.000000000000000e+00
0.000000000000000e+00 0.000000000000000e+00 0.000000000000000e+00
0.000000000000000e+00 0.000000000000000e+00 0.000000000000000e+00
0.000000000000000e+00 0.000000000000000e+00 0.000000000000000e+00
0.000000000000000e+00 0.000000000000000e+00 0.000000000000000e+00
0.000000000000000e+00 0.000000000000000e+00 0.000000000000000e+00
0.000000000000000e+00 0.000000000000000e+00 0.000000000000000e+00
0.000000000000000e+00 0.000000000000000e+00 0.000000000000000e+00
0.000000000000000e+00 0.000000000000000e+00 0.000000000000000e+00
0.000000000000000e+00 0.000000000000000e+00 0.000000000000000e+00
0.000000000000000e+00 0.000000000000000e+00 0.000000000000000e+00
0.000000000000000e+00 0.000000000000000e+00 0.000000000000000e+00
0.000000000000000e+00 0.000000000000000e+00 0.000000000000000e+00
0.000000000000000e+00 0.000000000000000e+00 0.000000000000000e+00
0.000000000000000e+00 0.000000000000000e+00 0.000000000000000e+00
0.000000000000000e+00 0.000000000000000e+00 0.000000000000000e+00
0.000000000000000e+00 0.000000000000000e+00 0.000000000000000e+00
0.000000000000000e+00 0.000000000000000e+00 0.000000000000000e+00
0.000000000000000e+00 0.000000000000000e+00 0.000000000000000e+00
0.000000000000000e+00 0.000000000000000e+00 0.000000000000000e+00
0.000000000000000e+00 0.000000000000000e+00 0.000000000000000e+00
0.000000000000000e+00 0.000000000000000e+00 0.000000000000000e+00
0.000000000000000e+00 0.000000000000000e+00 0.000000000000000e+00
0.000000000000000e+00 0.000000000000000e+00 0.000000000000000e+00
0.000000000000000e+00 0.000000000000000e+00 0.000000000000000e+00
0.000000000000000e+00 0.000000000000000e+00 0.000000000000000e+00
0.000000000000000e+00 0.000000000000000e+00 0.000000000000000e+00
0.000000000000000e+00 0.000000000000000e+00 0.000000000000000e+00
0.000000000000000e+00 0.000000000000000e+00 0.000000000000000e+00
0.000000000000000e+00 0.000000000000000e+00 0.000000000000000e+00
0.000000000000000e+00 0.000000000000000e+00 0.000000000000000e+00
0.000000000000000e+00 0.000000000000000e+00 0.000000000000000e+00
0.000000000000000e+00 0.000000000000000e+00 0.000000000000000e+00
0.000000000000000e+00 0.000000000000000e+00 0.000000000000000e+00
0.000000000000000e+00 0.000000000000000e+00 0.000000000000000e+00
0.000000000000000e+00 0.000000000000000e+00 0.000000000000000e+00
0.000000000000000e+00 0.000000000000000e+00 0.000000000000000e+00
0.000000000000000e+00 0.000000000000000e+00 0.000000000000000e+00
0.000000000000000e+00 0.000000000000000e+00 0.000000000000000e+00
0.000000000000000e+00 0.000000000000000e+00 0.000000000000000e+00
0.000000000000000e+00 0.000000000000000e+00 0.000000000000000e+00
0.000000000000000e+00 0.000000000000000e+00 0.000000000000000e+00
0.000000000000000e+00 0.000000000000000e+00 0.000000000000000e+00
0.000000000000000e+00 0.000000000000000e+00 0.000000000000000e+00
0.000000000000000e+00 0.000000000000000e+00 0.000000000000000e+00
0.000000000000000e+00 0.000000000000000e+00 0.000000000000000e+00
0.000000000000000e+00 0.000000000000000e+00 0.000000000000000e+00
0.000000000000000e+00 0.000000000000000e+00 0.000000000000000e+00
0.000000000000000e+00 0.000000000000000e+00 0.000000000000000e+00
0.000000000000000e+00 0.000000000000000e+00 0.000000000000000e+00
0.000000000000000e+00 0.000000000000000e+00 0.000000000000000e+00
0.000000000000000e+00 0.000000000000000e+00 0.000000000000000e+00
0.000000000000000e+00 0.000000000000000e+00 0.000000000000000e+00
0.000000000000000e+00 0.000000000000000e+00 0.000000000000000e+00
0.000000000000000e+00 0.000000000000000e+00 0.000000000000000e+00
0.000000000000000e+00 0.000000000000000e+00 0.000000000000000e+00
0.000000000000000e+00 0.000000000000000e+00 0.000000000000000e+00
0.000000000000000e+00 0.000000000000000e+00 0.000000000000000e+00
0.000000000000000e+00 0.000000000000000e+00 0.000000000000000e+00
0.000000000000000e+00 0.000000000000000e+00 0.000000000000000e+00
0.000000000000000e+00 0.000000000000000e+00 0.000000000000000e+00
0.000000000000000e+00 0.000000000000000e+00 0.000000000000000e+00
0.000000000000000e+00 0.000000000000000e+00 0.000000000000000e+00
0.000000000000000e+00 0.000000000000000e+00 0.000000000000000e+00
0.000000000000000e+00 0.000000000000000e+00 0.000000000000000e+00
0.000000000000000e+00 0.000000000000000e+00 0.000000000000000e+00
0.000000000000000e+00 0.000000000000000e+00 0.000000000000000e+00
0.000000000000000e+00 0.000000000000000e+00 0.000000000000000e+00