<?xml version="1.0" ?> 
<!-- 
# vtk DataFile Version 3.0
-->
<VTKFile type="UnstructuredGrid" version="0.1" compressor="vtkZLibDataCompressor" byte_order="LittleEndian">
  <UnstructuredGrid>
    <FieldData>
      <DataArray type="Float64" Name="TIME" NumberOfTuples="1" format="ascii">
1.000000000000000e-01 
      </DataArray>
    </FieldData>

    <Piece NumberOfPoints="27" NumberOfCells="1" >
      <Points>
        <DataArray type="Float64" NumberOfComponents="3" format="ascii">
-1.000000000000000e+00 2.000000000000000e-01 -5.000000000000000e+00
1.000000000000000e+00 2.000000000000000e-01 -5.000000000000000e+00
1.000000000000000e+00 8.000000000000000e-01 -5.000000000000000e+00
-1.000000000000000e+00 8.000000000000000e-01 -5.000000000000000e+00
-1.000000000000000e+00 2.000000000000000e-01 0.000000000000000e+00
1.000000000000000e+00 2.000000000000000e-01 0.000000000000000e+00
1.000000000000000e+00 8.000000000000000e-01 0.000000000000000e+00
-1.000000000000000e+00 8.000000000000000e-01 0.000000000000000e+00
0.000000000000000e+00 2.000000000000000e-01 -5.000000000000000e+00
1.000000000000000e+00 5.000000000000000e-01 -5.000000000000000e+00
0.000000000000000e+00 8.000000000000000e-01 -5.000000000000000e+00
-1.000000000000000e+00 5.000000000000000e-01 -5.000000000000000e+00
0.000000000000000e+00 2.000000000000000e-01 0.000000000000000e+00
1.000000000000000e+00 5.000000000000000e-01 0.000000000000000e+00
0.000000000000000e+00 7.999999999999999e-01 0.000000000000000e+00
-1.000000000000000e+00 5.000000000000000e-01 0.000000000000000e+00
-1.000000000000000e+00 2.000000000000000e-01 -2.500000000000000e+00
1.000000000000000e+00 2.000000000000000e-01 -2.500000000000000e+00
1.000000000000000e+00 7.999999999999999e-01 -2.500000000000000e+00
-1.000000000000000e+00 7.999999999999999e-01 -2.500000000000000e+00
-1.000000000000000e+00 5.000000000000000e-01 -2.500000000000000e+00
1.000000000000000e+00 5.000000000000000e-01 -2.500000000000000e+00
0.000000000000000e+00 2.000000000000000e-01 -2.500000000000000e+00
0.000000000000000e+00 8.000000000000000e-01 -2.500000000000000e+00
0.000000000000000e+00 4.999999999999999e-01 -5.000000000000000e+00
0.000000000000000e+00 5.000000000000000e-01 0.000000000000000e+00
0.000000000000000e+00 5.000000000000000e-01 -2.500000000000000e+00
        </DataArray>
      </Points>

      <Cells>
        <DataArray type="Int32" Name="connectivity" format="ascii">
0 1 2 3 4 5 6 7 8 9 10 11 12 13 14 15 16 17 18 19 20 21 22 23 24 25 26 
        </DataArray>
        <DataArray type="Int32" Name="offsets" format="ascii">
27 
        </DataArray>
        <DataArray type="UInt8" Name="types" format="ascii">
29 
        </DataArray>
      </Cells>

  <PointData>
        <DataArray type="Float64" Name="displacement" NumberOfComponents="3" format="ascii">
0.000000000000000e+00 0.000000000000000e+00 0.000000000000000e+00
0.000000000000000e+00 0.000000000000000e+00 0.000000000000000e+00
0.000000000000000e+00 0.000000000000000e+00 0.000000000000000e+00
0.000000000000000e+00 0.000000000000000e+00 0.000000000000000e+00
-8.035046312017176e-06 -3.611355657452795e-03 -1.000070716592014e-04
8.035046311453269e-06 -3.611355657453139e-03 -1.000070716590725e-04
-3.725157177977095e-05 -3.621284153709241e-03 6.790401020860336e-04
3.725157177940774e-05 -3.621284153708893e-03 6.790401020858793e-04
0.000000000000000e+00 0.000000000000000e+00 0.000000000000000e+00
0.000000000000000e+00 0.000000000000000e+00 0.000000000000000e+00
0.000000000000000e+00 0.000000000000000e+00 0.000000000000000e+00
0.000000000000000e+00 0.000000000000000e+00 0.000000000000000e+00
-2.745228488095267e-16 -3.648818965864356e-03 -9.753712880361343e-05
-1.502456466360872e-05 -3.613321837127323e-03 2.889044398628999e-04
-1.710773619393192e-16 -3.658699682906698e-03 6.797248248394185e-04
1.502456466314676e-05 -3.613321837126983e-03 2.889044398627580e-04
-8.845256786632344e-06 -1.010311945414057e-03 -6.229989289990113e-05
8.845256786368638e-06 -1.010311945414287e-03 -6.229989289984686e-05
-4.291335647456216e-05 -1.021816384026405e-03 3.822654993946191e-04
4.291335647447425e-05 -1.021816384026182e-03 3.822654993945235e-04
1.753789526478835e-05 -1.012362425851379e-03 1.591045144952504e-04
-1.753789526495328e-05 -1.012362425851603e-03 1.591045144953276e-04
-9.736810488299673e-17 -1.052854400201853e-03 -6.298867117323998e-05
-3.939899638770493e-17 -1.064156553111392e-03 3.820391704736071e-04
0.000000000000000e+00 0.000000000000000e+00 0.000000000000000e+00
-2.234547824333117e-16 -3.650816657476910e-03 2.901122903249558e-04
-7.043128587256261e-17 -1.054844676480657e-03 1.583069480505210e-04
        </DataArray>
  </PointData>
  <CellData>
        <DataArray type="Float64" Name="element_ghosting" NumberOfComponents="3" format="ascii">
0.000000000000000e+00 1.000000000000000e+00 1.000000000000000e+00
        </DataArray>
        <DataArray type="Float64" Name="element_gid" format="ascii">
0.000000000000000e+00
        </DataArray>
        <DataArray type="Float64" Name="element_owner" format="ascii">
0.000000000000000e+00
        </DataArray>
      </CellData>

    </Piece>
  </UnstructuredGrid>
</VTKFile>
