<?xml version="1.0" ?> 
<!-- 
# vtk DataFile Version 3.0
-->
<VTKFile type="UnstructuredGrid" version="0.1" compressor="vtkZLibDataCompressor" byte_order="LittleEndian">
  <UnstructuredGrid>
    <FieldData>
      <DataArray type="Float64" Name="TIME" NumberOfTuples="1" format="ascii">
1.000000000000000e-01 
      </DataArray>
    </FieldData>

    <Piece NumberOfPoints="32" NumberOfCells="4" >
      <Points>
        <DataArray type="Float64" NumberOfComponents="3" format="ascii">
-1.000000000000000e+00 -2.500000000000000e-01 3.000000000000000e+00
-1.000000000000000e+00 -2.500000000000000e-01 1.000000000000000e+00
-1.000000000000000e+00 2.500000000000000e-01 1.000000000000000e+00
-1.000000000000000e+00 2.500000000000000e-01 3.000000000000000e+00
1.000000000000000e+00 -2.500000000000000e-01 3.000000000000000e+00
1.000000000000000e+00 -2.500000000000000e-01 1.000000000000000e+00
1.000000000000000e+00 2.500000000000000e-01 1.000000000000000e+00
1.000000000000000e+00 2.500000000000000e-01 3.000000000000000e+00
-1.000000000000000e+00 -2.500000000000000e-01 1.000000000000000e+00
-1.000000000000000e+00 -2.500000000000000e-01 -1.000000000000000e+00
-1.000000000000000e+00 2.500000000000000e-01 -1.000000000000000e+00
-1.000000000000000e+00 2.500000000000000e-01 1.000000000000000e+00
1.000000000000000e+00 -2.500000000000000e-01 1.000000000000000e+00
1.000000000000000e+00 -2.500000000000000e-01 -1.000000000000000e+00
1.000000000000000e+00 2.500000000000000e-01 -1.000000000000000e+00
1.000000000000000e+00 2.500000000000000e-01 1.000000000000000e+00
-1.000000000000000e+00 -2.500000000000000e-01 -1.000000000000000e+00
-1.000000000000000e+00 -2.500000000000000e-01 -3.000000000000000e+00
-1.000000000000000e+00 2.500000000000000e-01 -3.000000000000000e+00
-1.000000000000000e+00 2.500000000000000e-01 -1.000000000000000e+00
1.000000000000000e+00 -2.500000000000000e-01 -1.000000000000000e+00
1.000000000000000e+00 -2.500000000000000e-01 -3.000000000000000e+00
1.000000000000000e+00 2.500000000000000e-01 -3.000000000000000e+00
1.000000000000000e+00 2.500000000000000e-01 -1.000000000000000e+00
-1.000000000000000e+00 -2.500000000000000e-01 -3.000000000000000e+00
-1.000000000000000e+00 -2.500000000000000e-01 -5.000000000000000e+00
-1.000000000000000e+00 2.500000000000000e-01 -5.000000000000000e+00
-1.000000000000000e+00 2.500000000000000e-01 -3.000000000000000e+00
1.000000000000000e+00 -2.500000000000000e-01 -3.000000000000000e+00
1.000000000000000e+00 -2.500000000000000e-01 -5.000000000000000e+00
1.000000000000000e+00 2.500000000000000e-01 -5.000000000000000e+00
1.000000000000000e+00 2.500000000000000e-01 -3.000000000000000e+00
        </DataArray>
      </Points>

      <Cells>
        <DataArray type="Int32" Name="connectivity" format="ascii">
0 1 2 3 4 5 6 7 8 9 10 11 12 13 14 15 16 17 18 19 20 21 22 23 24 25 26 27 28 29 30 31 
        </DataArray>
        <DataArray type="Int32" Name="offsets" format="ascii">
8 16 24 32 
        </DataArray>
        <DataArray type="UInt8" Name="types" format="ascii">
12 12 12 12 
        </DataArray>
      </Cells>

  <PointData>
        <DataArray type="Float64" Name="displacement" NumberOfComponents="3" format="ascii">
-8.660478581392547e-06 -8.318809917252498e-03 -9.246051948620990e-04
-1.585487821793996e-05 -5.003379792529450e-03 -7.929921378128978e-04
-9.759787669411861e-06 -4.995587764580840e-03 -3.343935887877941e-05
-6.344627849043863e-06 -8.315695370669340e-03 -5.232102832377533e-05
8.660478580203890e-06 -8.318809917252892e-03 -9.246051948619379e-04
1.585487821690431e-05 -5.003379792529883e-03 -7.929921378126307e-04
9.759787668726634e-06 -4.995587764581271e-03 -3.343935887858058e-05
6.344627847974421e-06 -8.315695370669693e-03 -5.232102832378593e-05
-1.585487821793996e-05 -5.003379792529450e-03 -7.929921378128978e-04
-2.234963323318424e-05 -2.322781746409375e-03 -5.899212664351556e-04
-1.392606109467463e-05 -2.314438123323440e-03 -2.429971515322744e-05
-9.759787669411861e-06 -4.995587764580840e-03 -3.343935887877941e-05
1.585487821690431e-05 -5.003379792529883e-03 -7.929921378126307e-04
2.234963323258879e-05 -2.322781746409628e-03 -5.899212664350166e-04
1.392606109431403e-05 -2.314438123323700e-03 -2.429971515297888e-05
9.759787668726634e-06 -4.995587764581271e-03 -3.343935887858058e-05
-2.234963323318424e-05 -2.322781746409375e-03 -5.899212664351556e-04
-3.408100411473202e-05 -5.623811085653755e-04 -3.058921370798913e-04
-2.066895860292727e-05 -5.438347284375825e-04 -1.763456603768930e-05
-1.392606109467463e-05 -2.314438123323440e-03 -2.429971515322744e-05
2.234963323258879e-05 -2.322781746409628e-03 -5.899212664350166e-04
3.408100411450941e-05 -5.623811085656258e-04 -3.058921370795932e-04
2.066895860277096e-05 -5.438347284378398e-04 -1.763456603788222e-05
1.392606109431403e-05 -2.314438123323700e-03 -2.429971515297888e-05
-3.408100411473202e-05 -5.623811085653755e-04 -3.058921370798913e-04
0.000000000000000e+00 0.000000000000000e+00 0.000000000000000e+00
0.000000000000000e+00 0.000000000000000e+00 0.000000000000000e+00
-2.066895860292727e-05 -5.438347284375825e-04 -1.763456603768930e-05
3.408100411450941e-05 -5.623811085656258e-04 -3.058921370795932e-04
0.000000000000000e+00 0.000000000000000e+00 0.000000000000000e+00
0.000000000000000e+00 0.000000000000000e+00 0.000000000000000e+00
2.066895860277096e-05 -5.438347284378398e-04 -1.763456603788222e-05
        </DataArray>
  </PointData>
  <CellData>
        <DataArray type="Float64" Name="element_ghosting" NumberOfComponents="3" format="ascii">
1.000000000000000e+00 1.000000000000000e+00 0.000000000000000e+00
1.000000000000000e+00 1.000000000000000e+00 0.000000000000000e+00
1.000000000000000e+00 1.000000000000000e+00 0.000000000000000e+00
1.000000000000000e+00 1.000000000000000e+00 0.000000000000000e+00
        </DataArray>
        <DataArray type="Float64" Name="element_gid" format="ascii">
3.000000000000000e+00
4.000000000000000e+00
5.000000000000000e+00
6.000000000000000e+00
        </DataArray>
        <DataArray type="Float64" Name="element_owner" format="ascii">
2.000000000000000e+00
2.000000000000000e+00
2.000000000000000e+00
2.000000000000000e+00
        </DataArray>
      </CellData>

    </Piece>
  </UnstructuredGrid>
</VTKFile>
