<?xml version="1.0" ?> 
<!-- 
# vtk DataFile Version 3.0
-->
<VTKFile type="UnstructuredGrid" version="0.1" compressor="vtkZLibDataCompressor" byte_order="LittleEndian">
  <UnstructuredGrid>
    <FieldData>
      <DataArray type="Float64" Name="TIME" NumberOfTuples="1" format="ascii">
0.000000000000000e+00 
      </DataArray>
    </FieldData>

    <Piece NumberOfPoints="35" NumberOfCells="2" >
      <Points>
        <DataArray type="Float64" NumberOfComponents="3" format="ascii">
-1.000000000000000e+00 2.000000000000000e-01 0.000000000000000e+00
1.000000000000000e+00 2.000000000000000e-01 0.000000000000000e+00
1.000000000000000e+00 8.000000000000000e-01 0.000000000000000e+00
-1.000000000000000e+00 8.000000000000000e-01 0.000000000000000e+00
-1.000000000000000e+00 2.000000000000000e-01 5.000000000000000e+00
1.000000000000000e+00 2.000000000000000e-01 5.000000000000000e+00
1.000000000000000e+00 8.000000000000000e-01 5.000000000000000e+00
-1.000000000000000e+00 8.000000000000000e-01 5.000000000000000e+00
0.000000000000000e+00 2.000000000000000e-01 0.000000000000000e+00
1.000000000000000e+00 5.000000000000000e-01 0.000000000000000e+00
0.000000000000000e+00 7.999999999999999e-01 0.000000000000000e+00
-1.000000000000000e+00 5.000000000000000e-01 0.000000000000000e+00
0.000000000000000e+00 2.000000000000000e-01 5.000000000000000e+00
1.000000000000000e+00 5.000000000000000e-01 5.000000000000000e+00
0.000000000000000e+00 8.000000000000000e-01 5.000000000000000e+00
-1.000000000000000e+00 5.000000000000000e-01 5.000000000000000e+00
-1.000000000000000e+00 2.000000000000000e-01 2.500000000000000e+00
1.000000000000000e+00 2.000000000000000e-01 2.500000000000000e+00
1.000000000000000e+00 8.000000000000000e-01 2.500000000000000e+00
-1.000000000000000e+00 8.000000000000000e-01 2.500000000000000e+00
-1.000000000000000e+00 5.000000000000000e-01 2.500000000000000e+00
1.000000000000000e+00 5.000000000000000e-01 2.500000000000000e+00
0.000000000000000e+00 2.000000000000000e-01 2.500000000000000e+00
0.000000000000000e+00 8.000000000000000e-01 2.500000000000000e+00
0.000000000000000e+00 5.000000000000000e-01 0.000000000000000e+00
0.000000000000000e+00 4.999999999999999e-01 5.000000000000000e+00
0.000000000000000e+00 5.000000000000000e-01 2.500000000000000e+00
-1.000000000000000e+00 -2.500000000000000e-01 5.000000000000000e+00
-1.000000000000000e+00 -2.500000000000000e-01 3.000000000000000e+00
-1.000000000000000e+00 2.500000000000000e-01 3.000000000000000e+00
-1.000000000000000e+00 2.500000000000000e-01 5.000000000000000e+00
1.000000000000000e+00 -2.500000000000000e-01 5.000000000000000e+00
1.000000000000000e+00 -2.500000000000000e-01 3.000000000000000e+00
1.000000000000000e+00 2.500000000000000e-01 3.000000000000000e+00
1.000000000000000e+00 2.500000000000000e-01 5.000000000000000e+00
        </DataArray>
      </Points>

      <Cells>
        <DataArray type="Int32" Name="connectivity" format="ascii">
0 1 2 3 4 5 6 7 8 9 10 11 12 13 14 15 16 17 18 19 20 21 22 23 24 25 26 27 28 29 30 31 32 33 34 
        </DataArray>
        <DataArray type="Int32" Name="offsets" format="ascii">
27 35 
        </DataArray>
        <DataArray type="UInt8" Name="types" format="ascii">
29 12 
        </DataArray>
      </Cells>

  <PointData>
        <DataArray type="Float64" Name="displacement" NumberOfComponents="3" format="ascii">
0.000000000000000e+00 0.000000000000000e+00 0.000000000000000e+00
0.000000000000000e+00 0.000000000000000e+00 0.000000000000000e+00
0.000000000000000e+00 0.000000000000000e+00 0.000000000000000e+00
0.000000000000000e+00 0.000000000000000e+00 0.000000000000000e+00
0.000000000000000e+00 0.000000000000000e+00 0.000000000000000e+00
0.000000000000000e+00 0.000000000000000e+00 0.000000000000000e+00
0.000000000000000e+00 0.000000000000000e+00 0.000000000000000e+00
0.000000000000000e+00 0.000000000000000e+00 0.000000000000000e+00
0.000000000000000e+00 0.000000000000000e+00 0.000000000000000e+00
0.000000000000000e+00 0.000000000000000e+00 0.000000000000000e+00
0.000000000000000e+00 0.000000000000000e+00 0.000000000000000e+00
0.000000000000000e+00 0.000000000000000e+00 0.000000000000000e+00
0.000000000000000e+00 0.000000000000000e+00 0.000000000000000e+00
0.000000000000000e+00 0.000000000000000e+00 0.000000000000000e+00
0.000000000000000e+00 0.000000000000000e+00 0.000000000000000e+00
0.000000000000000e+00 0.000000000000000e+00 0.000000000000000e+00
0.000000000000000e+00 0.000000000000000e+00 0.000000000000000e+00
0.000000000000000e+00 0.000000000000000e+00 0.000000000000000e+00
0.000000000000000e+00 0.000000000000000e+00 0.000000000000000e+00
0.000000000000000e+00 0.000000000000000e+00 0.000000000000000e+00
0.000000000000000e+00 0.000000000000000e+00 0.000000000000000e+00
0.000000000000000e+00 0.000000000000000e+00 0.000000000000000e+00
0.000000000000000e+00 0.000000000000000e+00 0.000000000000000e+00
0.000000000000000e+00 0.000000000000000e+00 0.000000000000000e+00
0.000000000000000e+00 0.000000000000000e+00 0.000000000000000e+00
0.000000000000000e+00 0.000000000000000e+00 0.000000000000000e+00
0.000000000000000e+00 0.000000000000000e+00 0.000000000000000e+00
0.000000000000000e+00 0.000000000000000e+00 0.000000000000000e+00
0.000000000000000e+00 0.000000000000000e+00 0.000000000000000e+00
0.000000000000000e+00 0.000000000000000e+00 0.000000000000000e+00
0.000000000000000e+00 0.000000000000000e+00 0.000000000000000e+00
0.000000000000000e+00 0.000000000000000e+00 0.000000000000000e+00
0.000000000000000e+00 0.000000000000000e+00 0.000000000000000e+00
0.000000000000000e+00 0.000000000000000e+00 0.000000000000000e+00
0.000000000000000e+00 0.000000000000000e+00 0.000000000000000e+00
        </DataArray>
  </PointData>
  <CellData>
        <DataArray type="Float64" Name="element_ghosting" NumberOfComponents="3" format="ascii">
1.000000000000000e+00 0.000000000000000e+00 1.000000000000000e+00
1.000000000000000e+00 0.000000000000000e+00 1.000000000000000e+00
        </DataArray>
        <DataArray type="Float64" Name="element_gid" format="ascii">
1.000000000000000e+00
2.000000000000000e+00
        </DataArray>
        <DataArray type="Float64" Name="element_owner" format="ascii">
1.000000000000000e+00
1.000000000000000e+00
        </DataArray>
      </CellData>

    </Piece>
  </UnstructuredGrid>
</VTKFile>
