<?xml version="1.0" ?> 
<!-- 
# vtk DataFile Version 3.0
-->
<VTKFile type="UnstructuredGrid" version="0.1" compressor="vtkZLibDataCompressor" byte_order="LittleEndian">
  <UnstructuredGrid>
    <FieldData>
      <DataArray type="Float64" Name="TIME" NumberOfTuples="1" format="ascii">
1.000000000000000e-01 
      </DataArray>
    </FieldData>

    <Piece NumberOfPoints="35" NumberOfCells="2" >
      <Points>
        <DataArray type="Float64" NumberOfComponents="3" format="ascii">
-1.000000000000000e+00 2.000000000000000e-01 0.000000000000000e+00
1.000000000000000e+00 2.000000000000000e-01 0.000000000000000e+00
1.000000000000000e+00 8.000000000000000e-01 0.000000000000000e+00
-1.000000000000000e+00 8.000000000000000e-01 0.000000000000000e+00
-1.000000000000000e+00 2.000000000000000e-01 5.000000000000000e+00
1.000000000000000e+00 2.000000000000000e-01 5.000000000000000e+00
1.000000000000000e+00 8.000000000000000e-01 5.000000000000000e+00
-1.000000000000000e+00 8.000000000000000e-01 5.000000000000000e+00
0.000000000000000e+00 2.000000000000000e-01 0.000000000000000e+00
1.000000000000000e+00 5.000000000000000e-01 0.000000000000000e+00
0.000000000000000e+00 7.999999999999999e-01 0.000000000000000e+00
-1.000000000000000e+00 5.000000000000000e-01 0.000000000000000e+00
0.000000000000000e+00 2.000000000000000e-01 5.000000000000000e+00
1.000000000000000e+00 5.000000000000000e-01 5.000000000000000e+00
0.000000000000000e+00 8.000000000000000e-01 5.000000000000000e+00
-1.000000000000000e+00 5.000000000000000e-01 5.000000000000000e+00
-1.000000000000000e+00 2.000000000000000e-01 2.500000000000000e+00
1.000000000000000e+00 2.000000000000000e-01 2.500000000000000e+00
1.000000000000000e+00 8.000000000000000e-01 2.500000000000000e+00
-1.000000000000000e+00 8.000000000000000e-01 2.500000000000000e+00
-1.000000000000000e+00 5.000000000000000e-01 2.500000000000000e+00
1.000000000000000e+00 5.000000000000000e-01 2.500000000000000e+00
0.000000000000000e+00 2.000000000000000e-01 2.500000000000000e+00
0.000000000000000e+00 8.000000000000000e-01 2.500000000000000e+00
0.000000000000000e+00 5.000000000000000e-01 0.000000000000000e+00
0.000000000000000e+00 4.999999999999999e-01 5.000000000000000e+00
0.000000000000000e+00 5.000000000000000e-01 2.500000000000000e+00
-1.000000000000000e+00 -2.500000000000000e-01 5.000000000000000e+00
-1.000000000000000e+00 -2.500000000000000e-01 3.000000000000000e+00
-1.000000000000000e+00 2.500000000000000e-01 3.000000000000000e+00
-1.000000000000000e+00 2.500000000000000e-01 5.000000000000000e+00
1.000000000000000e+00 -2.500000000000000e-01 5.000000000000000e+00
1.000000000000000e+00 -2.500000000000000e-01 3.000000000000000e+00
1.000000000000000e+00 2.500000000000000e-01 3.000000000000000e+00
1.000000000000000e+00 2.500000000000000e-01 5.000000000000000e+00
        </DataArray>
      </Points>

      <Cells>
        <DataArray type="Int32" Name="connectivity" format="ascii">
0 1 2 3 4 5 6 7 8 9 10 11 12 13 14 15 16 17 18 19 20 21 22 23 24 25 26 27 28 29 30 31 32 33 34 
        </DataArray>
        <DataArray type="Int32" Name="offsets" format="ascii">
27 35 
        </DataArray>
        <DataArray type="UInt8" Name="types" format="ascii">
29 12 
        </DataArray>
      </Cells>

  <PointData>
        <DataArray type="Float64" Name="displacement" NumberOfComponents="3" format="ascii">
-8.035046312017176e-06 -3.611355657452795e-03 -1.000070716592014e-04
8.035046311453269e-06 -3.611355657453139e-03 -1.000070716590725e-04
-3.725157177977095e-05 -3.621284153709241e-03 6.790401020860336e-04
3.725157177940774e-05 -3.621284153708893e-03 6.790401020858793e-04
-1.030451758337601e-05 -1.205947078170161e-02 -1.843209036288989e-04
1.030451758178630e-05 -1.205947078170206e-02 -1.843209036287141e-04
-1.360763598307866e-05 -1.206420294970166e-02 9.992064773025307e-04
1.360763598176587e-05 -1.206420294970122e-02 9.992064773023126e-04
-2.745228488095267e-16 -3.648818965864356e-03 -9.753712880361343e-05
-1.502456466360872e-05 -3.613321837127323e-03 2.889044398628999e-04
-1.710773619393192e-16 -3.658699682906698e-03 6.797248248394185e-04
1.502456466314676e-05 -3.613321837126983e-03 2.889044398627580e-04
-7.642871456699750e-16 -1.207960040543547e-02 -1.853419238216444e-04
-1.695773034383894e-06 -1.206025877057813e-02 4.057786224167814e-04
-6.325603933612488e-16 -1.208359509379347e-02 9.997213016627346e-04
1.695773032954865e-06 -1.206025877057768e-02 4.057786224165732e-04
-5.783442077237420e-06 -7.421589236190539e-03 -1.337909404961258e-04
5.783442076257841e-06 -7.421589236190936e-03 -1.337909404959405e-04
-1.636591019086393e-05 -7.426160583962872e-03 8.860962730600641e-04
1.636591019007882e-05 -7.426160583962464e-03 8.860962730598735e-04
5.422894988170516e-06 -7.422685022483517e-03 3.756968009030299e-04
-5.422894989055774e-06 -7.422685022483913e-03 3.756968009032176e-04
-5.054876635812115e-16 -7.440274149953547e-03 -1.296525029875913e-04
-3.753578860154149e-16 -7.444791744697023e-03 8.874783922012044e-04
-2.234547824333117e-16 -3.650816657476910e-03 2.901122903249558e-04
-7.031140027027958e-16 -1.207987123510873e-02 4.052535678852498e-04
-4.405292362518712e-16 -7.441348118511890e-03 3.781748794082252e-04
-4.678342044816401e-06 -1.190377469824083e-02 -9.721298698318472e-04
-8.660478581392547e-06 -8.318809917252498e-03 -9.246051948620990e-04
-6.344627849043863e-06 -8.315695370669340e-03 -5.232102832377533e-05
-4.478360952672558e-06 -1.190423175236797e-02 -7.116279346034674e-05
4.678342043010919e-06 -1.190377469824120e-02 -9.721298698318108e-04
8.660478580203890e-06 -8.318809917252892e-03 -9.246051948619379e-04
6.344627847974421e-06 -8.315695370669693e-03 -5.232102832378593e-05
4.478360951129270e-06 -1.190423175236844e-02 -7.116279346003705e-05
        </DataArray>
  </PointData>
  <CellData>
        <DataArray type="Float64" Name="element_ghosting" NumberOfComponents="3" format="ascii">
1.000000000000000e+00 0.000000000000000e+00 1.000000000000000e+00
1.000000000000000e+00 0.000000000000000e+00 1.000000000000000e+00
        </DataArray>
        <DataArray type="Float64" Name="element_gid" format="ascii">
1.000000000000000e+00
2.000000000000000e+00
        </DataArray>
        <DataArray type="Float64" Name="element_owner" format="ascii">
1.000000000000000e+00
1.000000000000000e+00
        </DataArray>
      </CellData>

    </Piece>
  </UnstructuredGrid>
</VTKFile>
