<?xml version="1.0" ?> 
<!-- 
# vtk DataFile Version 3.0
-->
<VTKFile type="UnstructuredGrid" version="0.1" compressor="vtkZLibDataCompressor" byte_order="LittleEndian">
  <UnstructuredGrid>
    <FieldData>
      <DataArray type="Float64" Name="TIME" NumberOfTuples="1" format="ascii">
9.999999999999999e-01 
      </DataArray>
    </FieldData>

    <Piece NumberOfPoints="320" NumberOfCells="40" >
      <Points>
        <DataArray type="Float64" NumberOfComponents="3" format="ascii">
-5.000000000000000e-01 -5.000000000000000e-01 0.000000000000000e+00
-5.000000000000000e-01 -5.000000000000000e-01 -5.000000000000000e-01
-5.000000000000000e-01 0.000000000000000e+00 -5.000000000000000e-01
-5.000000000000000e-01 0.000000000000000e+00 0.000000000000000e+00
0.000000000000000e+00 -5.000000000000000e-01 0.000000000000000e+00
0.000000000000000e+00 -5.000000000000000e-01 -5.000000000000000e-01
0.000000000000000e+00 0.000000000000000e+00 -5.000000000000000e-01
0.000000000000000e+00 0.000000000000000e+00 0.000000000000000e+00
-5.000000000000000e-01 -5.000000000000000e-01 -5.000000000000000e-01
-5.000000000000000e-01 -5.000000000000000e-01 -1.000000000000000e+00
-5.000000000000000e-01 0.000000000000000e+00 -1.000000000000000e+00
-5.000000000000000e-01 0.000000000000000e+00 -5.000000000000000e-01
0.000000000000000e+00 -5.000000000000000e-01 -5.000000000000000e-01
0.000000000000000e+00 -5.000000000000000e-01 -1.000000000000000e+00
0.000000000000000e+00 0.000000000000000e+00 -1.000000000000000e+00
0.000000000000000e+00 0.000000000000000e+00 -5.000000000000000e-01
-5.000000000000000e-01 -5.000000000000000e-01 -1.000000000000000e+00
-5.000000000000000e-01 -5.000000000000000e-01 -1.500000000000000e+00
-5.000000000000000e-01 0.000000000000000e+00 -1.500000000000000e+00
-5.000000000000000e-01 0.000000000000000e+00 -1.000000000000000e+00
0.000000000000000e+00 -5.000000000000000e-01 -1.000000000000000e+00
0.000000000000000e+00 -5.000000000000000e-01 -1.500000000000000e+00
0.000000000000000e+00 0.000000000000000e+00 -1.500000000000000e+00
0.000000000000000e+00 0.000000000000000e+00 -1.000000000000000e+00
-5.000000000000000e-01 -5.000000000000000e-01 -1.500000000000000e+00
-5.000000000000000e-01 -5.000000000000000e-01 -2.000000000000000e+00
-5.000000000000000e-01 0.000000000000000e+00 -2.000000000000000e+00
-5.000000000000000e-01 0.000000000000000e+00 -1.500000000000000e+00
0.000000000000000e+00 -5.000000000000000e-01 -1.500000000000000e+00
0.000000000000000e+00 -5.000000000000000e-01 -2.000000000000000e+00
0.000000000000000e+00 0.000000000000000e+00 -2.000000000000000e+00
0.000000000000000e+00 0.000000000000000e+00 -1.500000000000000e+00
-5.000000000000000e-01 -5.000000000000000e-01 -2.000000000000000e+00
-5.000000000000000e-01 -5.000000000000000e-01 -2.500000000000000e+00
-5.000000000000000e-01 0.000000000000000e+00 -2.500000000000000e+00
-5.000000000000000e-01 0.000000000000000e+00 -2.000000000000000e+00
0.000000000000000e+00 -5.000000000000000e-01 -2.000000000000000e+00
0.000000000000000e+00 -5.000000000000000e-01 -2.500000000000000e+00
0.000000000000000e+00 0.000000000000000e+00 -2.500000000000000e+00
0.000000000000000e+00 0.000000000000000e+00 -2.000000000000000e+00
-5.000000000000000e-01 -5.000000000000000e-01 -2.500000000000000e+00
-5.000000000000000e-01 -5.000000000000000e-01 -3.000000000000000e+00
-5.000000000000000e-01 0.000000000000000e+00 -3.000000000000000e+00
-5.000000000000000e-01 0.000000000000000e+00 -2.500000000000000e+00
0.000000000000000e+00 -5.000000000000000e-01 -2.500000000000000e+00
0.000000000000000e+00 -5.000000000000000e-01 -3.000000000000000e+00
0.000000000000000e+00 0.000000000000000e+00 -3.000000000000000e+00
0.000000000000000e+00 0.000000000000000e+00 -2.500000000000000e+00
-5.000000000000000e-01 -5.000000000000000e-01 -3.000000000000000e+00
-5.000000000000000e-01 -5.000000000000000e-01 -3.500000000000000e+00
-5.000000000000000e-01 0.000000000000000e+00 -3.500000000000000e+00
-5.000000000000000e-01 0.000000000000000e+00 -3.000000000000000e+00
0.000000000000000e+00 -5.000000000000000e-01 -3.000000000000000e+00
0.000000000000000e+00 -5.000000000000000e-01 -3.500000000000000e+00
0.000000000000000e+00 0.000000000000000e+00 -3.500000000000000e+00
0.000000000000000e+00 0.000000000000000e+00 -3.000000000000000e+00
-5.000000000000000e-01 -5.000000000000000e-01 -3.500000000000000e+00
-5.000000000000000e-01 -5.000000000000000e-01 -4.000000000000000e+00
-5.000000000000000e-01 0.000000000000000e+00 -4.000000000000000e+00
-5.000000000000000e-01 0.000000000000000e+00 -3.500000000000000e+00
0.000000000000000e+00 -5.000000000000000e-01 -3.500000000000000e+00
0.000000000000000e+00 -5.000000000000000e-01 -4.000000000000000e+00
0.000000000000000e+00 0.000000000000000e+00 -4.000000000000000e+00
0.000000000000000e+00 0.000000000000000e+00 -3.500000000000000e+00
-5.000000000000000e-01 -5.000000000000000e-01 -4.000000000000000e+00
-5.000000000000000e-01 -5.000000000000000e-01 -4.500000000000000e+00
-5.000000000000000e-01 0.000000000000000e+00 -4.500000000000000e+00
-5.000000000000000e-01 0.000000000000000e+00 -4.000000000000000e+00
0.000000000000000e+00 -5.000000000000000e-01 -4.000000000000000e+00
0.000000000000000e+00 -5.000000000000000e-01 -4.500000000000000e+00
0.000000000000000e+00 0.000000000000000e+00 -4.500000000000000e+00
0.000000000000000e+00 0.000000000000000e+00 -4.000000000000000e+00
-5.000000000000000e-01 -5.000000000000000e-01 -4.500000000000000e+00
-5.000000000000000e-01 -5.000000000000000e-01 -5.000000000000000e+00
-5.000000000000000e-01 0.000000000000000e+00 -5.000000000000000e+00
-5.000000000000000e-01 0.000000000000000e+00 -4.500000000000000e+00
0.000000000000000e+00 -5.000000000000000e-01 -4.500000000000000e+00
0.000000000000000e+00 -5.000000000000000e-01 -5.000000000000000e+00
0.000000000000000e+00 0.000000000000000e+00 -5.000000000000000e+00
0.000000000000000e+00 0.000000000000000e+00 -4.500000000000000e+00
-5.000000000000000e-01 0.000000000000000e+00 0.000000000000000e+00
-5.000000000000000e-01 0.000000000000000e+00 -5.000000000000000e-01
-5.000000000000000e-01 5.000000000000000e-01 -5.000000000000000e-01
-5.000000000000000e-01 5.000000000000000e-01 0.000000000000000e+00
0.000000000000000e+00 0.000000000000000e+00 0.000000000000000e+00
0.000000000000000e+00 0.000000000000000e+00 -5.000000000000000e-01
0.000000000000000e+00 5.000000000000000e-01 -5.000000000000000e-01
0.000000000000000e+00 5.000000000000000e-01 0.000000000000000e+00
-5.000000000000000e-01 0.000000000000000e+00 -5.000000000000000e-01
-5.000000000000000e-01 0.000000000000000e+00 -1.000000000000000e+00
-5.000000000000000e-01 5.000000000000000e-01 -1.000000000000000e+00
-5.000000000000000e-01 5.000000000000000e-01 -5.000000000000000e-01
0.000000000000000e+00 0.000000000000000e+00 -5.000000000000000e-01
0.000000000000000e+00 0.000000000000000e+00 -1.000000000000000e+00
0.000000000000000e+00 5.000000000000000e-01 -1.000000000000000e+00
0.000000000000000e+00 5.000000000000000e-01 -5.000000000000000e-01
-5.000000000000000e-01 0.000000000000000e+00 -1.000000000000000e+00
-5.000000000000000e-01 0.000000000000000e+00 -1.500000000000000e+00
-5.000000000000000e-01 5.000000000000000e-01 -1.500000000000000e+00
-5.000000000000000e-01 5.000000000000000e-01 -1.000000000000000e+00
0.000000000000000e+00 0.000000000000000e+00 -1.000000000000000e+00
0.000000000000000e+00 0.000000000000000e+00 -1.500000000000000e+00
0.000000000000000e+00 5.000000000000000e-01 -1.500000000000000e+00
0.000000000000000e+00 5.000000000000000e-01 -1.000000000000000e+00
-5.000000000000000e-01 0.000000000000000e+00 -1.500000000000000e+00
-5.000000000000000e-01 0.000000000000000e+00 -2.000000000000000e+00
-5.000000000000000e-01 5.000000000000000e-01 -2.000000000000000e+00
-5.000000000000000e-01 5.000000000000000e-01 -1.500000000000000e+00
0.000000000000000e+00 0.000000000000000e+00 -1.500000000000000e+00
0.000000000000000e+00 0.000000000000000e+00 -2.000000000000000e+00
0.000000000000000e+00 5.000000000000000e-01 -2.000000000000000e+00
0.000000000000000e+00 5.000000000000000e-01 -1.500000000000000e+00
-5.000000000000000e-01 0.000000000000000e+00 -2.000000000000000e+00
-5.000000000000000e-01 0.000000000000000e+00 -2.500000000000000e+00
-5.000000000000000e-01 5.000000000000000e-01 -2.500000000000000e+00
-5.000000000000000e-01 5.000000000000000e-01 -2.000000000000000e+00
0.000000000000000e+00 0.000000000000000e+00 -2.000000000000000e+00
0.000000000000000e+00 0.000000000000000e+00 -2.500000000000000e+00
0.000000000000000e+00 5.000000000000000e-01 -2.500000000000000e+00
0.000000000000000e+00 5.000000000000000e-01 -2.000000000000000e+00
-5.000000000000000e-01 0.000000000000000e+00 -2.500000000000000e+00
-5.000000000000000e-01 0.000000000000000e+00 -3.000000000000000e+00
-5.000000000000000e-01 5.000000000000000e-01 -3.000000000000000e+00
-5.000000000000000e-01 5.000000000000000e-01 -2.500000000000000e+00
0.000000000000000e+00 0.000000000000000e+00 -2.500000000000000e+00
0.000000000000000e+00 0.000000000000000e+00 -3.000000000000000e+00
0.000000000000000e+00 5.000000000000000e-01 -3.000000000000000e+00
0.000000000000000e+00 5.000000000000000e-01 -2.500000000000000e+00
-5.000000000000000e-01 0.000000000000000e+00 -3.000000000000000e+00
-5.000000000000000e-01 0.000000000000000e+00 -3.500000000000000e+00
-5.000000000000000e-01 5.000000000000000e-01 -3.500000000000000e+00
-5.000000000000000e-01 5.000000000000000e-01 -3.000000000000000e+00
0.000000000000000e+00 0.000000000000000e+00 -3.000000000000000e+00
0.000000000000000e+00 0.000000000000000e+00 -3.500000000000000e+00
0.000000000000000e+00 5.000000000000000e-01 -3.500000000000000e+00
0.000000000000000e+00 5.000000000000000e-01 -3.000000000000000e+00
-5.000000000000000e-01 0.000000000000000e+00 -3.500000000000000e+00
-5.000000000000000e-01 0.000000000000000e+00 -4.000000000000000e+00
-5.000000000000000e-01 5.000000000000000e-01 -4.000000000000000e+00
-5.000000000000000e-01 5.000000000000000e-01 -3.500000000000000e+00
[...]
  <PointData>
        <DataArray type="Float64" Name="displacement" NumberOfComponents="3" format="ascii">
-1.246417278673059e-04 -2.236370131917088e-05 6.453778008337813e-06
3.109208447254262e-05 -2.690398674325389e-05 1.843285883434758e-05
-1.189965218958638e-05 -4.327642533312522e-05 9.242205370951049e-06
-1.589671666057650e-05 4.231531690437249e-05 2.712592527257641e-05
2.982649649237660e-05 -4.690568049307075e-05 2.515007380532203e-05
-2.274851366090728e-05 -2.061084916210798e-05 3.563996831263751e-05
-1.937905996686731e-05 -3.863563561132526e-05 -3.733238024255074e-06
1.290507693143626e-05 3.131684694446408e-05 -1.088344182860272e-05
3.109208447254262e-05 -2.690398674325389e-05 1.843285883434758e-05
-2.043658647923326e-06 1.254519573951282e-05 -4.996649459604608e-06
5.714248946049749e-06 1.307740013270958e-05 -5.250350345509457e-06
-1.189965218958638e-05 -4.327642533312522e-05 9.242205370951049e-06
-2.274851366090728e-05 -2.061084916210798e-05 3.563996831263751e-05
6.299590926590518e-06 1.124161816390290e-05 -1.548901342557675e-05
5.822204482681667e-06 1.114322281925501e-05 1.903452399816183e-06
-1.937905996686731e-05 -3.863563561132526e-05 -3.733238024255074e-06
-2.043658647923326e-06 1.254519573951282e-05 -4.996649459604608e-06
-1.897980532517524e-06 -3.461259720093812e-06 3.570185409847032e-07
-1.553007552962809e-06 -2.267635782568873e-06 1.085177404233700e-06
5.714248946049749e-06 1.307740013270958e-05 -5.250350345509457e-06
6.299590926590518e-06 1.124161816390290e-05 -1.548901342557675e-05
-9.585942658968623e-07 -3.247297126307560e-06 3.074221838434316e-06
-8.008743779606422e-07 -1.406030697537786e-06 -4.836066705987538e-07
5.822204482681667e-06 1.114322281925501e-05 1.903452399816183e-06
-1.897980532517524e-06 -3.461259720093812e-06 3.570185409847032e-07
1.026017255478963e-06 6.706039678080511e-07 1.450016753438547e-07
2.890063174661473e-07 1.311589449598309e-07 1.297669776870094e-08
-1.553007552962809e-06 -2.267635782568873e-06 1.085177404233700e-06
-9.585942658968623e-07 -3.247297126307560e-06 3.074221838434316e-06
1.268777655947129e-08 6.494795175851191e-07 -2.477264316428818e-08
-6.692458982656147e-08 -1.795000428879253e-07 7.477001205878622e-08
-8.008743779606422e-07 -1.406030697537786e-06 -4.836066705987538e-07
1.026017255478963e-06 6.706039678080511e-07 1.450016753438547e-07
-3.090176199366913e-07 -7.705631190296977e-08 -4.903545536069893e-08
-2.894387901198838e-08 6.315000602777773e-08 -8.916095816998951e-08
2.890063174661473e-07 1.311589449598309e-07 1.297669776870094e-08
1.268777655947129e-08 6.494795175851191e-07 -2.477264316428818e-08
4.118394580086224e-08 -7.901647630565835e-08 -2.127296585820852e-07
6.716317648086277e-08 1.403898825453360e-07 -2.167302107760990e-09
-6.692458982656147e-08 -1.795000428879253e-07 7.477001205878622e-08
-3.090176199366913e-07 -7.705631190296977e-08 -4.903545536069893e-08
6.139588676632120e-08 -5.228826988419542e-09 3.027496910540717e-09
-4.082376056400569e-09 -2.862875526652899e-08 3.508035756892113e-08
-2.894387901198838e-08 6.315000602777773e-08 -8.916095816998951e-08
4.118394580086224e-08 -7.901647630565835e-08 -2.127296585820852e-07
-1.488141809653983e-08 -3.621010990725305e-09 8.680032540860213e-08
-1.871319430429846e-08 -3.713670787594074e-08 -2.998994261909505e-09
6.716317648086277e-08 1.403898825453360e-07 -2.167302107760990e-09
6.139588676632120e-08 -5.228826988419542e-09 3.027496910540717e-09
-5.619895072395218e-09 6.169690512164276e-09 2.514065436244650e-09
3.201684425792816e-09 7.696081402034968e-09 -8.052806650871516e-09
-4.082376056400569e-09 -2.862875526652899e-08 3.508035756892113e-08
-1.488141809653983e-08 -3.621010990725305e-09 8.680032540860213e-08
3.520022275310190e-09 5.725842454854079e-09 -2.074457925856547e-08
2.559038261191988e-09 4.661520719197152e-09 1.206508486555935e-09
-1.871319430429846e-08 -3.713670787594074e-08 -2.998994261909505e-09
-5.619895072395218e-09 6.169690512164276e-09 2.514065436244650e-09
-1.529838406311398e-09 -2.229494804399146e-09 -1.018724018550745e-09
-1.095603294546540e-09 -1.706147823976162e-09 9.429593603884098e-10
3.201684425792816e-09 7.696081402034968e-09 -8.052806650871516e-09
3.520022275310190e-09 5.725842454854079e-09 -2.074457925856547e-08
-6.967410795049099e-10 -2.160282795218219e-09 2.799753384104854e-09
1.914905904455539e-10 5.464275764898177e-10 -2.972506848052007e-10
2.559038261191988e-09 4.661520719197152e-09 1.206508486555935e-09
-1.529838406311398e-09 -2.229494804399146e-09 -1.018724018550745e-09
1.034543509306583e-09 6.178462241467088e-10 1.387082536970188e-10
2.966014387224792e-10 3.713426138120018e-10 1.481465913816489e-10
-1.095603294546540e-09 -1.706147823976162e-09 9.429593603884098e-10
-6.967410795049099e-10 -2.160282795218219e-09 2.799753384104854e-09
1.417283410503068e-10 6.188988280132195e-10 1.924004186297564e-10
-2.310174898331278e-10 -5.034007087633497e-10 5.134437843821777e-11
1.914905904455539e-10 5.464275764898177e-10 -2.972506848052007e-10
1.034543509306583e-09 6.178462241467088e-10 1.387082536970188e-10
-5.979557641392555e-10 -2.518151256890937e-10 1.275031246704392e-10
-1.087155786614987e-10 -1.510341218703787e-10 -2.171167932917185e-10
2.966014387224792e-10 3.713426138120018e-10 1.481465913816489e-10
1.417283410503068e-10 6.188988280132195e-10 1.924004186297564e-10
-6.123432799207007e-11 -2.512046064429464e-10 -4.376999918022253e-10
1.214028915320217e-10 2.557728660334790e-10 -1.089534819398241e-11
-2.310174898331278e-10 -5.034007087633497e-10 5.134437843821777e-11
-1.589671666057650e-05 4.231531690437249e-05 2.712592527257641e-05
-1.189965218958638e-05 -4.327642533312522e-05 9.242205370951049e-06
-5.603297633041862e-05 -4.923436070294532e-05 -1.382538458368284e-05
9.571810587882153e-05 1.321133499612733e-05 6.382996189510513e-05
1.290507693143626e-05 3.131684694446408e-05 -1.088344182860272e-05
-1.937905996686731e-05 -3.863563561132526e-05 -3.733238024255074e-06
-1.674375261038464e-05 -6.541833069829039e-06 -3.703445159691789e-05
-1.262155227802710e-05 -7.537452742124549e-05 1.014163096255581e-05
-1.189965218958638e-05 -4.327642533312522e-05 9.242205370951049e-06
5.714248946049749e-06 1.307740013270958e-05 -5.250350345509457e-06
1.345510691311410e-05 1.658719394597805e-05 1.356559022699193e-06
-5.603297633041862e-05 -4.923436070294532e-05 -1.382538458368284e-05
-1.937905996686731e-05 -3.863563561132526e-05 -3.733238024255074e-06
5.822204482681667e-06 1.114322281925501e-05 1.903452399816183e-06
7.080878588436269e-06 7.692205434924103e-06 1.390369883264236e-05
-1.674375261038464e-05 -6.541833069829039e-06 -3.703445159691789e-05
5.714248946049749e-06 1.307740013270958e-05 -5.250350345509457e-06
-1.553007552962809e-06 -2.267635782568873e-06 1.085177404233700e-06
-9.411563486616378e-07 -2.804866072484583e-06 3.236459644532368e-07
1.345510691311410e-05 1.658719394597805e-05 1.356559022699193e-06
5.822204482681667e-06 1.114322281925501e-05 1.903452399816183e-06
-8.008743779606422e-07 -1.406030697537786e-06 -4.836066705987538e-07
-1.633913122283722e-06 -2.689015169929918e-06 -2.495707631614671e-06
7.080878588436269e-06 7.692205434924103e-06 1.390369883264236e-05
-1.553007552962809e-06 -2.267635782568873e-06 1.085177404233700e-06
2.890063174661473e-07 1.311589449598309e-07 1.297669776870094e-08
-5.855689234589308e-07 1.284572351799522e-08 -1.863717828784799e-07
-9.411563486616378e-07 -2.804866072484583e-06 3.236459644532368e-07
-8.008743779606422e-07 -1.406030697537786e-06 -4.836066705987538e-07
-6.692458982656147e-08 -1.795000428879253e-07 7.477001205878622e-08
2.105497995791549e-07 6.251484067244413e-07 -7.470643774158553e-08
-1.633913122283722e-06 -2.689015169929918e-06 -2.495707631614671e-06
2.890063174661473e-07 1.311589449598309e-07 1.297669776870094e-08
-2.894387901198838e-08 6.315000602777773e-08 -8.916095816998951e-08
2.874261991609427e-07 1.530634745687221e-07 4.327722877410352e-08
-5.855689234589308e-07 1.284572351799522e-08 -1.863717828784799e-07
-6.692458982656147e-08 -1.795000428879253e-07 7.477001205878622e-08
6.716317648086277e-08 1.403898825453360e-07 -2.167302107760990e-09
9.028142088490275e-09 -9.721090946882760e-08 2.119831631615080e-07
2.105497995791549e-07 6.251484067244413e-07 -7.470643774158553e-08
-2.894387901198838e-08 6.315000602777773e-08 -8.916095816998951e-08
-4.082376056400569e-09 -2.862875526652899e-08 3.508035756892113e-08
-7.278180797997003e-08 -5.401470397500745e-08 -3.660002862675323e-09
2.874261991609427e-07 1.530634745687221e-07 4.327722877410352e-08
6.716317648086277e-08 1.403898825453360e-07 -2.167302107760990e-09
-1.871319430429846e-08 -3.713670787594074e-08 -2.998994261909505e-09
-1.452230866983639e-08 3.966968168675113e-09 -7.990979195618492e-08
9.028142088490275e-09 -9.721090946882760e-08 2.119831631615080e-07
-4.082376056400569e-09 -2.862875526652899e-08 3.508035756892113e-08
3.201684425792816e-09 7.696081402034968e-09 -8.052806650871516e-09
1.013631212236191e-08 1.062751926469490e-08 -1.261420910654214e-09
-7.278180797997003e-08 -5.401470397500745e-08 -3.660002862675323e-09
-1.871319430429846e-08 -3.713670787594074e-08 -2.998994261909505e-09
2.559038261191988e-09 4.661520719197152e-09 1.206508486555935e-09
5.216443441835641e-09 3.877431192037371e-09 1.798223749956203e-08
-1.452230866983639e-08 3.966968168675113e-09 -7.990979195618492e-08
3.201684425792816e-09 7.696081402034968e-09 -8.052806650871516e-09
-1.095603294546540e-09 -1.706147823976162e-09 9.429593603884098e-10
5.190351606951728e-10 -8.491154875411186e-10 6.314392067796867e-10
1.013631212236191e-08 1.062751926469490e-08 -1.261420910654214e-09
2.559038261191988e-09 4.661520719197152e-09 1.206508486555935e-09
1.914905904455539e-10 5.464275764898177e-10 -2.972506848052007e-10
-1.355366055417576e-09 -1.847915912112463e-09 -2.091836265546678e-09
5.216443441835641e-09 3.877431192037371e-09 1.798223749956203e-08
-1.095603294546540e-09 -1.706147823976162e-09 9.429593603884098e-10
2.966014387224792e-10 3.713426138120018e-10 1.481465913816489e-10
-8.633528200550409e-10 -2.868324886481965e-10 -1.325463806419867e-10
5.190351606951728e-10 -8.491154875411186e-10 6.314392067796867e-10
1.914905904455539e-10 5.464275764898177e-10 -2.972506848052007e-10
-2.310174898331278e-10 -5.034007087633497e-10 5.134437843821777e-11
3.046442954362727e-10 5.877500843145182e-10 -3.156714483652067e-10
-1.355366055417576e-09 -1.847915912112463e-09 -2.091836265546678e-09
2.966014387224792e-10 3.713426138120018e-10 1.481465913816489e-10
-1.087155786614987e-10 -1.510341218703787e-10 -2.171167932917185e-10
5.390194255646304e-10 2.597772996122087e-10 -8.276358151081447e-12
-8.633528200550409e-10 -2.868324886481965e-10 -1.325463806419867e-10
-2.310174898331278e-10 -5.034007087633497e-10 5.134437843821777e-11
1.214028915320217e-10 2.557728660334790e-10 -1.089534819398241e-11
-1.051817995484380e-10 -2.439114341874910e-10 4.662825641240997e-10
3.046442954362727e-10 5.877500843145182e-10 -3.156714483652067e-10
2.982649649237660e-05 -4.690568049307075e-05 2.515007380532203e-05
-2.274851366090728e-05 -2.061084916210798e-05 3.563996831263751e-05
-1.937905996686731e-05 -3.863563561132526e-05 -3.733238024255074e-06
1.290507693143626e-05 3.131684694446408e-05 -1.088344182860272e-05
1.204959656848979e-04 6.142677980379777e-05 6.763732711232936e-05
-7.113926976948244e-05 -6.435556058976931e-05 -5.938061712105240e-06
-1.305679927841924e-06 -3.665318033262127e-05 -2.342065354936425e-05
-4.558619917386319e-05 -4.162356166351942e-06 4.923336748514101e-06
-2.274851366090728e-05 -2.061084916210798e-05 3.563996831263751e-05
6.299590926590518e-06 1.124161816390290e-05 -1.548901342557675e-05
5.822204482681667e-06 1.114322281925501e-05 1.903452399816183e-06
-1.937905996686731e-05 -3.863563561132526e-05 -3.733238024255074e-06
-7.113926976948244e-05 -6.435556058976931e-05 -5.938061712105240e-06
1.737978115561996e-05 1.953029356096612e-05 -1.030220550725605e-06
3.638951687849704e-06 1.380934223290663e-05 9.095199182028854e-06
-1.305679927841924e-06 -3.665318033262127e-05 -2.342065354936425e-05
6.299590926590518e-06 1.124161816390290e-05 -1.548901342557675e-05
-9.585942658968623e-07 -3.247297126307560e-06 3.074221838434316e-06
-8.008743779606422e-07 -1.406030697537786e-06 -4.836066705987538e-07
5.822204482681667e-06 1.114322281925501e-05 1.903452399816183e-06
1.737978115561996e-05 1.953029356096612e-05 -1.030220550725605e-06
-1.421289911029256e-06 -3.020828608911110e-06 6.124009889370158e-07
-1.391440993705526e-06 -2.953663356376943e-06 -1.807936013856070e-06
3.638951687849704e-06 1.380934223290663e-05 9.095199182028854e-06
-9.585942658968623e-07 -3.247297126307560e-06 3.074221838434316e-06
1.268777655947129e-08 6.494795175851191e-07 -2.477264316428818e-08
-6.692458982656147e-08 -1.795000428879253e-07 7.477001205878622e-08
-8.008743779606422e-07 -1.406030697537786e-06 -4.836066705987538e-07
-1.421289911029256e-06 -3.020828608911110e-06 6.124009889370158e-07
-6.552383701274790e-07 -8.641913508267044e-08 -1.793632143197047e-07
3.448380469196322e-07 3.359450293378287e-07 5.149387930220954e-08
-1.391440993705526e-06 -2.953663356376943e-06 -1.807936013856070e-06
1.268777655947129e-08 6.494795175851191e-07 -2.477264316428818e-08
4.118394580086224e-08 -7.901647630565835e-08 -2.127296585820852e-07
6.716317648086277e-08 1.403898825453360e-07 -2.167302107760990e-09
-6.692458982656147e-08 -1.795000428879253e-07 7.477001205878622e-08
-6.552383701274790e-07 -8.641913508267044e-08 -1.793632143197047e-07
3.458906384085471e-07 2.066427948558596e-07 4.190462509508037e-08
-5.898063669223778e-08 2.863074472029408e-08 1.051818569667996e-07
3.448380469196322e-07 3.359450293378287e-07 5.149387930220954e-08
4.118394580086224e-08 -7.901647630565835e-08 -2.127296585820852e-07
-1.488141809653983e-08 -3.621010990725305e-09 8.680032540860213e-08
-1.871319430429846e-08 -3.713670787594074e-08 -2.998994261909505e-09
6.716317648086277e-08 1.403898825453360e-07 -2.167302107760990e-09
3.458906384085471e-07 2.066427948558596e-07 4.190462509508037e-08
-9.210123574529736e-08 -6.970407915967134e-08 -8.245429564090420e-09
4.348642842207740e-09 -2.761982618232332e-08 -4.496397328715564e-08
-5.898063669223778e-08 2.863074472029408e-08 1.051818569667996e-07
-1.488141809653983e-08 -3.621010990725305e-09 8.680032540860213e-08
3.520022275310190e-09 5.725842454854079e-09 -2.074457925856547e-08
2.559038261191988e-09 4.661520719197152e-09 1.206508486555935e-09
-1.871319430429846e-08 -3.713670787594074e-08 -2.998994261909505e-09
-9.210123574529736e-08 -6.970407915967134e-08 -8.245429564090420e-09
1.448812767642178e-08 1.383614964265586e-08 1.146301594346721e-09
1.555649148662705e-09 9.235238413410986e-09 1.102936602598540e-08
4.348642842207740e-09 -2.761982618232332e-08 -4.496397328715564e-08
3.520022275310190e-09 5.725842454854079e-09 -2.074457925856547e-08
-6.967410795049099e-10 -2.160282795218219e-09 2.799753384104854e-09
1.914905904455539e-10 5.464275764898177e-10 -2.972506848052007e-10
2.559038261191988e-09 4.661520719197152e-09 1.206508486555935e-09
1.448812767642178e-08 1.383614964265586e-08 1.146301594346721e-09
-1.341004872271982e-10 -1.254163800324760e-09 3.472451301091903e-11
-8.963270120938281e-10 -2.330256156488167e-09 -1.571008668205177e-09
1.555649148662705e-09 9.235238413410986e-09 1.102936602598540e-08
-6.967410795049099e-10 -2.160282795218219e-09 2.799753384104854e-09
1.417283410503068e-10 6.188988280132195e-10 1.924004186297564e-10
-2.310174898331278e-10 -5.034007087633497e-10 5.134437843821777e-11
1.914905904455539e-10 5.464275764898177e-10 -2.972506848052007e-10
-1.341004872271982e-10 -1.254163800324760e-09 3.472451301091903e-11
-8.444737460763613e-10 -3.022814870292076e-10 -1.118124636560260e-10
3.043887853374711e-10 5.271823140897000e-10 -6.468596626425034e-11
-8.963270120938281e-10 -2.330256156488167e-09 -1.571008668205177e-09
1.417283410503068e-10 6.188988280132195e-10 1.924004186297564e-10
-6.123432799207007e-11 -2.512046064429464e-10 -4.376999918022253e-10
1.214028915320217e-10 2.557728660334790e-10 -1.089534819398241e-11
-2.310174898331278e-10 -5.034007087633497e-10 5.134437843821777e-11
-8.444737460763613e-10 -3.022814870292076e-10 -1.118124636560260e-10
6.018537223218436e-10 2.968251169057770e-10 1.224338861414856e-10
-1.411521935214196e-10 -1.925168148156209e-10 2.098213011882976e-10
3.043887853374711e-10 5.271823140897000e-10 -6.468596626425034e-11
1.290507693143626e-05 3.131684694446408e-05 -1.088344182860272e-05
-1.937905996686731e-05 -3.863563561132526e-05 -3.733238024255074e-06
-1.674375261038464e-05 -6.541833069829039e-06 -3.703445159691789e-05
-1.262155227802710e-05 -7.537452742124549e-05 1.014163096255581e-05
-4.558619917386319e-05 -4.162356166351942e-06 4.923336748514101e-06
-1.305679927841924e-06 -3.665318033262127e-05 -2.342065354936425e-05
2.905094961657146e-05 3.343864995410933e-06 -7.509688271981675e-06
-1.306210605914371e-04 -1.119325662908393e-04 8.311976068154585e-07
-1.937905996686731e-05 -3.863563561132526e-05 -3.733238024255074e-06
5.822204482681667e-06 1.114322281925501e-05 1.903452399816183e-06
7.080878588436269e-06 7.692205434924103e-06 1.390369883264236e-05
-1.674375261038464e-05 -6.541833069829039e-06 -3.703445159691789e-05
-1.305679927841924e-06 -3.665318033262127e-05 -2.342065354936425e-05
3.638951687849704e-06 1.380934223290663e-05 9.095199182028854e-06
-1.297015703515901e-06 6.093276292265460e-06 2.838420286242461e-06
2.905094961657146e-05 3.343864995410933e-06 -7.509688271981675e-06
5.822204482681667e-06 1.114322281925501e-05 1.903452399816183e-06
-8.008743779606422e-07 -1.406030697537786e-06 -4.836066705987538e-07
-1.633913122283722e-06 -2.689015169929918e-06 -2.495707631614671e-06
7.080878588436269e-06 7.692205434924103e-06 1.390369883264236e-05
3.638951687849704e-06 1.380934223290663e-05 9.095199182028854e-06
-1.391440993705526e-06 -2.953663356376943e-06 -1.807936013856070e-06
-1.883816021747606e-06 -2.712479370090047e-06 -5.741107439240588e-07
-1.297015703515901e-06 6.093276292265460e-06 2.838420286242461e-06
-8.008743779606422e-07 -1.406030697537786e-06 -4.836066705987538e-07
-6.692458982656147e-08 -1.795000428879253e-07 7.477001205878622e-08
2.105497995791549e-07 6.251484067244413e-07 -7.470643774158553e-08
-1.633913122283722e-06 -2.689015169929918e-06 -2.495707631614671e-06
-1.391440993705526e-06 -2.953663356376943e-06 -1.807936013856070e-06
3.448380469196322e-07 3.359450293378287e-07 5.149387930220954e-08
9.319607619000134e-07 7.448152226927625e-07 8.642573709107344e-08
-1.883816021747606e-06 -2.712479370090047e-06 -5.741107439240588e-07
-6.692458982656147e-08 -1.795000428879253e-07 7.477001205878622e-08
6.716317648086277e-08 1.403898825453360e-07 -2.167302107760990e-09
9.028142088490275e-09 -9.721090946882760e-08 2.119831631615080e-07
2.105497995791549e-07 6.251484067244413e-07 -7.470643774158553e-08
3.448380469196322e-07 3.359450293378287e-07 5.149387930220954e-08
-5.898063669223778e-08 2.863074472029408e-08 1.051818569667996e-07
-2.646740988433835e-07 -1.461603715342576e-07 -2.171257568444498e-08
9.319607619000134e-07 7.448152226927625e-07 8.642573709107344e-08
6.716317648086277e-08 1.403898825453360e-07 -2.167302107760990e-09
-1.871319430429846e-08 -3.713670787594074e-08 -2.998994261909505e-09
-1.452230866983639e-08 3.966968168675113e-09 -7.990979195618492e-08
9.028142088490275e-09 -9.721090946882760e-08 2.119831631615080e-07
-5.898063669223778e-08 2.863074472029408e-08 1.051818569667996e-07
4.348642842207740e-09 -2.761982618232332e-08 -4.496397328715564e-08
4.808547098522692e-08 1.705052126131870e-08 9.161789674159970e-09
-2.646740988433835e-07 -1.461603715342576e-07 -2.171257568444498e-08
-1.871319430429846e-08 -3.713670787594074e-08 -2.998994261909505e-09
2.559038261191988e-09 4.661520719197152e-09 1.206508486555935e-09
5.216443441835641e-09 3.877431192037371e-09 1.798223749956203e-08
-1.452230866983639e-08 3.966968168675113e-09 -7.990979195618492e-08
4.348642842207740e-09 -2.761982618232332e-08 -4.496397328715564e-08
1.555649148662705e-09 9.235238413410986e-09 1.102936602598540e-08