<?xml version="1.0" ?> 
<!-- 
# vtk DataFile Version 3.0
-->
<VTKFile type="UnstructuredGrid" version="0.1" compressor="vtkZLibDataCompressor" byte_order="LittleEndian">
  <UnstructuredGrid>
    <FieldData>
      <DataArray type="Float64" Name="TIME" NumberOfTuples="1" format="ascii">
3.000000000000000e+00 
      </DataArray>
    </FieldData>

    <Piece NumberOfPoints="32" NumberOfCells="0" >
      <Points>
        <DataArray type="Float64" NumberOfComponents="3" format="ascii">
-1.000000000000000e+00 1.000000000000000e+00 0.000000000000000e+00
-1.000000000000000e+00 1.000000000000000e+00 1.000000000000000e+00
0.000000000000000e+00 1.000000000000000e+00 1.000000000000000e+00
0.000000000000000e+00 1.000000000000000e+00 0.000000000000000e+00
-1.000000000000000e+00 1.000000000000000e+00 -1.000000000000000e+00
-1.000000000000000e+00 1.000000000000000e+00 0.000000000000000e+00
0.000000000000000e+00 1.000000000000000e+00 0.000000000000000e+00
0.000000000000000e+00 1.000000000000000e+00 -1.000000000000000e+00
0.000000000000000e+00 1.000000000000000e+00 0.000000000000000e+00
0.000000000000000e+00 1.000000000000000e+00 1.000000000000000e+00
1.000000000000000e+00 1.000000000000000e+00 1.000000000000000e+00
1.000000000000000e+00 1.000000000000000e+00 0.000000000000000e+00
0.000000000000000e+00 1.000000000000000e+00 -1.000000000000000e+00
0.000000000000000e+00 1.000000000000000e+00 0.000000000000000e+00
1.000000000000000e+00 1.000000000000000e+00 0.000000000000000e+00
1.000000000000000e+00 1.000000000000000e+00 -1.000000000000000e+00
-2.000000000000000e+00 1.000000000000000e+00 0.000000000000000e+00
-2.000000000000000e+00 1.000000000000000e+00 1.000000000000000e+00
-1.000000000000000e+00 1.000000000000000e+00 1.000000000000000e+00
-1.000000000000000e+00 1.000000000000000e+00 0.000000000000000e+00
1.000000000000000e+00 1.000000000000000e+00 -1.000000000000000e+00
1.000000000000000e+00 1.000000000000000e+00 0.000000000000000e+00
2.000000000000000e+00 1.000000000000000e+00 0.000000000000000e+00
2.000000000000000e+00 1.000000000000000e+00 -1.000000000000000e+00
1.000000000000000e+00 1.000000000000000e+00 0.000000000000000e+00
1.000000000000000e+00 1.000000000000000e+00 1.000000000000000e+00
2.000000000000000e+00 1.000000000000000e+00 1.000000000000000e+00
2.000000000000000e+00 1.000000000000000e+00 0.000000000000000e+00
-2.000000000000000e+00 1.000000000000000e+00 -1.000000000000000e+00
-2.000000000000000e+00 1.000000000000000e+00 0.000000000000000e+00
-1.000000000000000e+00 1.000000000000000e+00 0.000000000000000e+00
-1.000000000000000e+00 1.000000000000000e+00 -1.000000000000000e+00
        </DataArray>
      </Points>

      <Cells>
        <DataArray type="Int32" Name="connectivity" format="ascii">

        </DataArray>
        <DataArray type="Int32" Name="offsets" format="ascii">

        </DataArray>
        <DataArray type="UInt8" Name="types" format="ascii">

        </DataArray>
      </Cells>

  <PointData>
        <DataArray type="Int32" Name="coupling_id" format="ascii">
1
1
1
1
1
1
1
1
1
1
1
1
1
1
1
1
1
1
1
1
1
1
1
1
1
1
1
1
1
1
1
1
        </DataArray>
        <DataArray type="Float64" Name="displacement" NumberOfComponents="3" format="ascii">
2.737395309010782e-02 -2.360737611849006e-02 -3.585443018597875e-02
1.778986127472892e-02 3.049438418375239e-03 -2.847332460751106e-02
1.258152207172178e-02 1.216535411518405e-02 -4.418198412772123e-02
1.974151424508874e-02 -1.133671909318876e-01 -4.454357604711507e-02
3.339609854615444e-02 -3.122724956184197e-02 -4.425863242753403e-02
2.737395309010782e-02 -2.360737611849006e-02 -3.585443018597875e-02
1.974151424508874e-02 -1.133671909318876e-01 -4.454357604711507e-02
9.205750484658265e-03 -4.124608370300742e-01 -6.210042002983518e-02
1.974151424508874e-02 -1.133671909318876e-01 -4.454357604711507e-02
1.258152207172178e-02 1.216535411518405e-02 -4.418198412772123e-02
9.893256819996532e-03 5.577642982545372e-03 -4.496500309672158e-02
-6.106867428280482e-04 -8.210530405699645e-02 -5.390009176928530e-02
9.205750484658265e-03 -4.124608370300742e-01 -6.210042002983518e-02
1.974151424508874e-02 -1.133671909318876e-01 -4.454357604711507e-02
-6.106867428280482e-04 -8.210530405699645e-02 -5.390009176928530e-02
1.233670921054908e-02 -4.019009695825696e-01 -6.646420665279829e-02
2.522425894247937e-02 1.177740671921357e-02 -1.904682246046689e-02
2.211399006012371e-02 2.169724929867556e-02 -2.275061342036933e-02
1.778986127472892e-02 3.049438418375239e-03 -2.847332460751106e-02
2.737395309010782e-02 -2.360737611849006e-02 -3.585443018597875e-02
1.233670921054908e-02 -4.019009695825696e-01 -6.646420665279829e-02
-6.106867428280482e-04 -8.210530405699645e-02 -5.390009176928530e-02
-8.496231219860428e-03 -3.347811439547488e-02 -5.251192069288057e-02
-4.104825158101955e-02 -2.609012553725787e-02 -7.064623654747426e-02
-6.106867428280482e-04 -8.210530405699645e-02 -5.390009176928530e-02
9.893256819996532e-03 5.577642982545372e-03 -4.496500309672158e-02
4.371929947345699e-03 1.126203108174373e-02 -4.596816693120043e-02
-8.496231219860428e-03 -3.347811439547488e-02 -5.251192069288057e-02
1.577095900521530e-02 7.155126998104056e-04 -9.687415500547081e-03
2.522425894247937e-02 1.177740671921357e-02 -1.904682246046689e-02
2.737395309010782e-02 -2.360737611849006e-02 -3.585443018597875e-02
3.339609854615444e-02 -3.122724956184197e-02 -4.425863242753403e-02
        </DataArray>
        <DataArray type="Float64" Name="normal_averaged" NumberOfComponents="3" format="ascii">
6.248934043493999e-02 9.979094228305976e-01 -1.648836431881277e-02
4.494939983701546e-03 9.996411094205871e-01 -2.640923836313722e-02
-2.301431431134477e-03 9.922136069522729e-01 -1.245265497479493e-01
2.667897539023957e-02 9.786324761553187e-01 -2.038791526523414e-01
2.003796950873800e-01 9.796986575340754e-01 -6.206305069797577e-03
6.248934043494001e-02 9.979094228305977e-01 -1.648836431881277e-02
2.667897539023957e-02 9.786324761553187e-01 -2.038791526523414e-01
1.703410551354276e-01 9.449131680861644e-01 -2.795049726082121e-01
2.667897539023957e-02 9.786324761553187e-01 -2.038791526523414e-01
-2.301431431134477e-03 9.922136069522729e-01 -1.245265497479493e-01
3.653895327713276e-04 9.962444991839734e-01 -8.658385724927899e-02
-4.044491965310635e-02 9.799855290279698e-01 -1.949168319310164e-01
1.703410551354276e-01 9.449131680861644e-01 -2.795049726082121e-01
2.667897539023956e-02 9.786324761553187e-01 -2.038791526523414e-01
-4.044491965310635e-02 9.799855290279698e-01 -1.949168319310164e-01
-1.858833097301031e-01 9.362681317303643e-01 -2.980761323385618e-01
3.510620138843010e-02 9.993266575221966e-01 -1.066706096303915e-02
1.866773653003734e-02 9.997767653046465e-01 -9.896219976478509e-03
4.494939983701546e-03 9.996411094205871e-01 -2.640923836313722e-02
6.248934043494001e-02 9.979094228305977e-01 -1.648836431881277e-02
-1.858833097301031e-01 9.362681317303643e-01 -2.980761323385618e-01
-4.044491965310635e-02 9.799855290279698e-01 -1.949168319310164e-01
-4.892307787859090e-02 9.986498566841590e-01 -1.746414027641143e-02
-3.688555427017806e-01 9.293018810474606e-01 1.853651800706895e-02
-4.044491965310635e-02 9.799855290279698e-01 -1.949168319310164e-01
3.653895327713276e-04 9.962444991839734e-01 -8.658385724927899e-02
-5.754951970492106e-03 9.990003097961012e-01 -4.433127062369434e-02
-4.892307787859090e-02 9.986498566841590e-01 -1.746414027641143e-02
3.098319947345862e-02 9.994542521122571e-01 -1.145597159199710e-02
3.510620138843010e-02 9.993266575221966e-01 -1.066706096303915e-02
6.248934043494001e-02 9.979094228305977e-01 -1.648836431881277e-02
2.003796950873800e-01 9.796986575340754e-01 -6.206305069797577e-03
        </DataArray>
        <DataArray type="Float64" Name="normal_element" NumberOfComponents="3" format="ascii">
8.983176387409048e-02 9.956306801408609e-01 -2.549123303248319e-02
-9.579117792727515e-03 9.996017995152783e-01 -2.654209690529948e-02
-1.105893460352498e-02 9.921478119741094e-01 -1.245809743115792e-01
8.832212373829512e-02 9.884185477743033e-01 -1.234016891055175e-01
3.638170185783541e-01 9.314577293591800e-01 -4.865738361044114e-03
9.001953907771661e-02 9.959154842048107e-01 -6.987911371292507e-03
8.398371816313582e-02 9.557883262955156e-01 -2.818073994782820e-01
3.463493150784800e-01 8.990548163970908e-01 -2.678480708496161e-01
-3.283578337890911e-02 9.916541646325282e-01 -1.246748936107675e-01
6.456248263699943e-03 9.922032980029326e-01 -1.244625738543961e-01
6.512457970847563e-03 9.962179167464256e-01 -8.664554370878014e-02
-3.259881920362864e-02 9.957446234023276e-01 -8.619722705450408e-02
-1.132555639075144e-02 9.593836026562159e-01 -2.818773398604785e-01
-3.329104594167841e-02 9.589748190395071e-01 -2.815297545700165e-01
-3.328750596720428e-02 9.529214650105822e-01 -3.013845109964503e-01
-1.134768707358571e-02 9.534691555668824e-01 -3.012769479742120e-01
3.512034676742617e-02 9.993346419876026e-01 -9.840455601530029e-03
1.866773653003734e-02 9.997767653046465e-01 -9.896219976478509e-03
1.856810732016593e-02 9.994823921225534e-01 -2.627114819577850e-02
3.483758530361478e-02 9.990519871440292e-01 -2.610497335336492e-02
-3.546995252593446e-01 8.902592572404703e-01 -2.857038706045859e-01
-4.625803595349102e-02 9.523814394126123e-01 -3.013798068419420e-01
-4.896532173938246e-02 9.987615978312225e-01 8.812943014804181e-03
-3.688555427017806e-01 9.293018810474606e-01 1.853651800706895e-02
-4.865364810048459e-02 9.951086146114062e-01 -8.597480824451929e-02
-5.781692713726939e-03 9.962334325832830e-01 -8.651889870249900e-02
-5.754951970492106e-03 9.990003097961012e-01 -4.433127062369434e-02
-4.884705266300712e-02 9.978485484332925e-01 -4.372916458964771e-02
3.098319947345863e-02 9.994542521122574e-01 -1.145597159199711e-02
3.509203201293176e-02 9.993179899767802e-01 -1.149365903318256e-02
3.516296374939900e-02 9.993546259263610e-01 -7.341499842787453e-03
3.112319637292845e-02 9.994884087975067e-01 -7.366636068162526e-03
        </DataArray>
        <DataArray type="Int32" Name="uid_0_face_id" format="ascii">
2
2
2
2
3
3
3
3
4
4
4
4
5
5
5
5
0
0
0
0
7
7
7
7
6
6
6
6
1
1
1
1
        </DataArray>
      </PointData>

    </Piece>
  </UnstructuredGrid>
</VTKFile>
