<?xml version="1.0" ?> 
<!-- 
# vtk DataFile Version 3.0
-->
<VTKFile type="UnstructuredGrid" version="0.1" compressor="vtkZLibDataCompressor" byte_order="LittleEndian">
  <UnstructuredGrid>
    <FieldData>
      <DataArray type="Float64" Name="TIME" NumberOfTuples="1" format="ascii">
3.000000000000000e+00 
      </DataArray>
    </FieldData>

    <Piece NumberOfPoints="15" NumberOfCells="0" >
      <Points>
        <DataArray type="Float64" NumberOfComponents="3" format="ascii">
-2.000000000000000e+00 -1.000000000000000e+00 1.000000000000000e+00
-2.000000000000000e+00 -1.000000000000000e+00 0.000000000000000e+00
-2.000000000000000e+00 0.000000000000000e+00 0.000000000000000e+00
-2.000000000000000e+00 0.000000000000000e+00 1.000000000000000e+00
-1.000000000000000e+00 -1.000000000000000e+00 1.000000000000000e+00
-1.000000000000000e+00 -1.000000000000000e+00 0.000000000000000e+00
-1.000000000000000e+00 0.000000000000000e+00 0.000000000000000e+00
-1.000000000000000e+00 0.000000000000000e+00 1.000000000000000e+00
-2.000000000000000e+00 -1.000000000000000e+00 -1.000000000000000e+00
-2.000000000000000e+00 0.000000000000000e+00 -1.000000000000000e+00
-1.000000000000000e+00 -1.000000000000000e+00 -1.000000000000000e+00
-1.000000000000000e+00 0.000000000000000e+00 -1.000000000000000e+00
-2.000000000000000e+00 1.000000000000000e+00 1.000000000000000e+00
-1.000000000000000e+00 1.000000000000000e+00 1.000000000000000e+00
0.000000000000000e+00 0.000000000000000e+00 -1.000000000000000e+00
        </DataArray>
      </Points>

      <Cells>
        <DataArray type="Int32" Name="connectivity" format="ascii">

        </DataArray>
        <DataArray type="Int32" Name="offsets" format="ascii">

        </DataArray>
        <DataArray type="UInt8" Name="types" format="ascii">

        </DataArray>
      </Cells>

  <PointData>
        <DataArray type="Float64" Name="displacement" NumberOfComponents="3" format="ascii">
0.000000000000000e+00 0.000000000000000e+00 0.000000000000000e+00
0.000000000000000e+00 0.000000000000000e+00 0.000000000000000e+00
-6.499334153502083e-03 6.077819341026410e-03 -1.726442433652520e-03
3.789885951837327e-04 1.202720829587402e-02 -4.584517231328166e-03
0.000000000000000e+00 0.000000000000000e+00 0.000000000000000e+00
0.000000000000000e+00 0.000000000000000e+00 0.000000000000000e+00
-1.191981225301409e-02 -1.540863646983045e-02 -2.541693144945503e-04
-2.202682944986929e-03 2.453801526928864e-03 9.541848471491553e-04
0.000000000000000e+00 0.000000000000000e+00 0.000000000000000e+00
-1.734022246683630e-02 2.676894840662193e-03 -5.097088697276242e-03
0.000000000000000e+00 0.000000000000000e+00 0.000000000000000e+00
-3.778271375093459e-02 -3.484388677968688e-02 -9.243983119388887e-03
2.211399006012373e-02 2.169724929867560e-02 -2.275061342036930e-02
1.778986127472895e-02 3.049438418375292e-03 -2.847332460751105e-02
-2.262934670106721e-02 -1.168199536448210e-01 -9.724660560881197e-03
        </DataArray>
        <DataArray type="Float64" Name="force_beam" NumberOfComponents="3" format="ascii">
0.000000000000000e+00 0.000000000000000e+00 0.000000000000000e+00
0.000000000000000e+00 0.000000000000000e+00 0.000000000000000e+00
0.000000000000000e+00 0.000000000000000e+00 0.000000000000000e+00
0.000000000000000e+00 0.000000000000000e+00 0.000000000000000e+00
0.000000000000000e+00 0.000000000000000e+00 0.000000000000000e+00
0.000000000000000e+00 0.000000000000000e+00 0.000000000000000e+00
0.000000000000000e+00 0.000000000000000e+00 0.000000000000000e+00
0.000000000000000e+00 0.000000000000000e+00 0.000000000000000e+00
0.000000000000000e+00 0.000000000000000e+00 0.000000000000000e+00
0.000000000000000e+00 0.000000000000000e+00 0.000000000000000e+00
0.000000000000000e+00 0.000000000000000e+00 0.000000000000000e+00
0.000000000000000e+00 0.000000000000000e+00 0.000000000000000e+00
0.000000000000000e+00 0.000000000000000e+00 0.000000000000000e+00
0.000000000000000e+00 0.000000000000000e+00 0.000000000000000e+00
0.000000000000000e+00 0.000000000000000e+00 0.000000000000000e+00
        </DataArray>
        <DataArray type="Float64" Name="force_solid" NumberOfComponents="3" format="ascii">
0.000000000000000e+00 0.000000000000000e+00 0.000000000000000e+00
0.000000000000000e+00 0.000000000000000e+00 0.000000000000000e+00
0.000000000000000e+00 0.000000000000000e+00 0.000000000000000e+00
0.000000000000000e+00 0.000000000000000e+00 0.000000000000000e+00
0.000000000000000e+00 0.000000000000000e+00 0.000000000000000e+00
0.000000000000000e+00 0.000000000000000e+00 0.000000000000000e+00
0.000000000000000e+00 0.000000000000000e+00 0.000000000000000e+00
0.000000000000000e+00 0.000000000000000e+00 0.000000000000000e+00
0.000000000000000e+00 0.000000000000000e+00 0.000000000000000e+00
0.000000000000000e+00 0.000000000000000e+00 0.000000000000000e+00
0.000000000000000e+00 0.000000000000000e+00 0.000000000000000e+00
0.000000000000000e+00 0.000000000000000e+00 0.000000000000000e+00
0.000000000000000e+00 0.000000000000000e+00 0.000000000000000e+00
0.000000000000000e+00 0.000000000000000e+00 0.000000000000000e+00
0.000000000000000e+00 0.000000000000000e+00 0.000000000000000e+00
        </DataArray>
        <DataArray type="Int32" Name="uid_0_node_id" format="ascii">
0
1
2
3
4
5
6
7
8
9
10
11
13
15
23
        </DataArray>
      </PointData>

    </Piece>
  </UnstructuredGrid>
</VTKFile>
