<?xml version="1.0" ?> 
<!-- 
# vtk DataFile Version 3.0
-->
<VTKFile type="UnstructuredGrid" version="0.1" compressor="vtkZLibDataCompressor" byte_order="LittleEndian">
  <UnstructuredGrid>
    <FieldData>
      <DataArray type="Float64" Name="TIME" NumberOfTuples="1" format="ascii">
3.000000000000000e+00 
      </DataArray>
    </FieldData>

    <Piece NumberOfPoints="24" NumberOfCells="0" >
      <Points>
        <DataArray type="Float64" NumberOfComponents="3" format="ascii">
1.000000000000000e+00 1.000000000000000e+00 -1.000000000000000e+00
1.000000000000000e+00 1.000000000000000e+00 0.000000000000000e+00
2.000000000000000e+00 1.000000000000000e+00 0.000000000000000e+00
2.000000000000000e+00 1.000000000000000e+00 -1.000000000000000e+00
1.000000000000000e+00 1.000000000000000e+00 0.000000000000000e+00
1.000000000000000e+00 1.000000000000000e+00 1.000000000000000e+00
2.000000000000000e+00 1.000000000000000e+00 1.000000000000000e+00
2.000000000000000e+00 1.000000000000000e+00 0.000000000000000e+00
-1.000000000000000e+00 1.000000000000000e+00 -1.000000000000000e+00
-1.000000000000000e+00 1.000000000000000e+00 0.000000000000000e+00
0.000000000000000e+00 1.000000000000000e+00 0.000000000000000e+00
0.000000000000000e+00 1.000000000000000e+00 -1.000000000000000e+00
0.000000000000000e+00 1.000000000000000e+00 -1.000000000000000e+00
0.000000000000000e+00 1.000000000000000e+00 0.000000000000000e+00
1.000000000000000e+00 1.000000000000000e+00 0.000000000000000e+00
1.000000000000000e+00 1.000000000000000e+00 -1.000000000000000e+00
0.000000000000000e+00 1.000000000000000e+00 0.000000000000000e+00
0.000000000000000e+00 1.000000000000000e+00 1.000000000000000e+00
1.000000000000000e+00 1.000000000000000e+00 1.000000000000000e+00
1.000000000000000e+00 1.000000000000000e+00 0.000000000000000e+00
-1.000000000000000e+00 1.000000000000000e+00 0.000000000000000e+00
-1.000000000000000e+00 1.000000000000000e+00 1.000000000000000e+00
0.000000000000000e+00 1.000000000000000e+00 1.000000000000000e+00
0.000000000000000e+00 1.000000000000000e+00 0.000000000000000e+00
        </DataArray>
      </Points>

      <Cells>
        <DataArray type="Int32" Name="connectivity" format="ascii">

        </DataArray>
        <DataArray type="Int32" Name="offsets" format="ascii">

        </DataArray>
        <DataArray type="UInt8" Name="types" format="ascii">

        </DataArray>
      </Cells>

  <PointData>
        <DataArray type="Int32" Name="coupling_id" format="ascii">
1
1
1
1
1
1
1
1
1
1
1
1
1
1
1
1
1
1
1
1
1
1
1
1
        </DataArray>
        <DataArray type="Float64" Name="displacement" NumberOfComponents="3" format="ascii">
1.233670921054930e-02 -4.019009695825700e-01 -6.646420665279851e-02
-6.106867428280482e-04 -8.210530405699656e-02 -5.390009176928528e-02
-8.496231219860206e-03 -3.347811439547521e-02 -5.251192069288048e-02
-4.104825158101955e-02 -2.609012553725809e-02 -7.064623654747448e-02
-6.106867428280482e-04 -8.210530405699656e-02 -5.390009176928528e-02
9.893256819996754e-03 5.577642982545150e-03 -4.496500309672158e-02
4.371929947345699e-03 1.126203108174373e-02 -4.596816693120065e-02
-8.496231219860206e-03 -3.347811439547521e-02 -5.251192069288048e-02
3.339609854615433e-02 -3.122724956184197e-02 -4.425863242753403e-02
2.737395309010793e-02 -2.360737611849006e-02 -3.585443018597875e-02
1.974151424508887e-02 -1.133671909318877e-01 -4.454357604711508e-02
9.205750484658376e-03 -4.124608370300740e-01 -6.210042002983540e-02
9.205750484658376e-03 -4.124608370300740e-01 -6.210042002983540e-02
1.974151424508887e-02 -1.133671909318877e-01 -4.454357604711508e-02
-6.106867428280482e-04 -8.210530405699656e-02 -5.390009176928528e-02
1.233670921054930e-02 -4.019009695825700e-01 -6.646420665279851e-02
1.974151424508887e-02 -1.133671909318877e-01 -4.454357604711508e-02
1.258152207172189e-02 1.216535411518405e-02 -4.418198412772112e-02
9.893256819996754e-03 5.577642982545150e-03 -4.496500309672158e-02
-6.106867428280482e-04 -8.210530405699656e-02 -5.390009176928528e-02
2.737395309010793e-02 -2.360737611849006e-02 -3.585443018597875e-02
1.778986127472892e-02 3.049438418375239e-03 -2.847332460751117e-02
1.258152207172189e-02 1.216535411518405e-02 -4.418198412772112e-02
1.974151424508887e-02 -1.133671909318877e-01 -4.454357604711508e-02
        </DataArray>
        <DataArray type="Float64" Name="normal_averaged" NumberOfComponents="3" format="ascii">
-1.858833097301029e-01 9.362681317303644e-01 -2.980761323385622e-01
-4.044491965310622e-02 9.799855290279698e-01 -1.949168319310164e-01
-4.892307787859067e-02 9.986498566841590e-01 -1.746414027641155e-02
-3.688555427017809e-01 9.293018810474606e-01 1.853651800706914e-02
-4.044491965310622e-02 9.799855290279698e-01 -1.949168319310164e-01
3.653895327713120e-04 9.962444991839734e-01 -8.658385724927888e-02
-5.754951970492341e-03 9.990003097961012e-01 -4.433127062369468e-02
-4.892307787859067e-02 9.986498566841590e-01 -1.746414027641155e-02
2.003796950873799e-01 9.796986575340753e-01 -6.206305069797620e-03
6.248934043494028e-02 9.979094228305977e-01 -1.648836431881277e-02
2.667897539023962e-02 9.786324761553188e-01 -2.038791526523412e-01
1.703410551354278e-01 9.449131680861645e-01 -2.795049726082117e-01
1.703410551354278e-01 9.449131680861645e-01 -2.795049726082117e-01
2.667897539023962e-02 9.786324761553187e-01 -2.038791526523412e-01
-4.044491965310622e-02 9.799855290279698e-01 -1.949168319310164e-01
-1.858833097301029e-01 9.362681317303644e-01 -2.980761323385622e-01
2.667897539023962e-02 9.786324761553188e-01 -2.038791526523412e-01
-2.301431431134358e-03 9.922136069522729e-01 -1.245265497479494e-01
3.653895327713120e-04 9.962444991839734e-01 -8.658385724927888e-02
-4.044491965310622e-02 9.799855290279698e-01 -1.949168319310164e-01
6.248934043494027e-02 9.979094228305976e-01 -1.648836431881277e-02
4.494939983701890e-03 9.996411094205871e-01 -2.640923836313722e-02
-2.301431431134358e-03 9.922136069522729e-01 -1.245265497479494e-01
2.667897539023962e-02 9.786324761553188e-01 -2.038791526523412e-01
        </DataArray>
        <DataArray type="Float64" Name="normal_element" NumberOfComponents="3" format="ascii">
-3.546995252593447e-01 8.902592572404701e-01 -2.857038706045862e-01
-4.625803595349076e-02 9.523814394126122e-01 -3.013798068419422e-01
-4.896532173938222e-02 9.987615978312225e-01 8.812943014804292e-03
-3.688555427017809e-01 9.293018810474606e-01 1.853651800706914e-02
-4.865364810048435e-02 9.951086146114062e-01 -8.597480824451918e-02
-5.781692713727181e-03 9.962334325832830e-01 -8.651889870249889e-02
-5.754951970492341e-03 9.990003097961012e-01 -4.433127062369468e-02
-4.884705266300687e-02 9.978485484332925e-01 -4.372916458964806e-02
3.638170185783539e-01 9.314577293591801e-01 -4.865738361044196e-03
9.001953907771672e-02 9.959154842048107e-01 -6.987911371292526e-03
8.398371816313592e-02 9.557883262955156e-01 -2.818073994782817e-01
3.463493150784798e-01 8.990548163970912e-01 -2.678480708496158e-01
-1.132555639075080e-02 9.593836026562161e-01 -2.818773398604782e-01
-3.329104594167840e-02 9.589748190395072e-01 -2.815297545700162e-01
-3.328750596720427e-02 9.529214650105821e-01 -3.013845109964505e-01
-1.134768707358507e-02 9.534691555668824e-01 -3.012769479742122e-01
-3.283578337890911e-02 9.916541646325283e-01 -1.246748936107676e-01
6.456248263700151e-03 9.922032980029327e-01 -1.244625738543962e-01
6.512457970847774e-03 9.962179167464256e-01 -8.664554370878003e-02
-3.259881920362864e-02 9.957446234023277e-01 -8.619722705450396e-02
8.983176387409059e-02 9.956306801408609e-01 -2.549123303248318e-02
-9.579117792727508e-03 9.996017995152783e-01 -2.654209690529948e-02
-1.105893460352495e-02 9.921478119741093e-01 -1.245809743115793e-01
8.832212373829522e-02 9.884185477743030e-01 -1.234016891055175e-01
        </DataArray>
        <DataArray type="Int32" Name="uid_0_face_id" format="ascii">
7
7
7
7
6
6
6
6
3
3
3
3
5
5
5
5
4
4
4
4
2
2
2
2
        </DataArray>
      </PointData>

    </Piece>
  </UnstructuredGrid>
</VTKFile>
