<?xml version="1.0" ?> 
<!-- 
# vtk DataFile Version 3.0
-->
<VTKFile type="UnstructuredGrid" version="0.1" compressor="vtkZLibDataCompressor" byte_order="LittleEndian">
  <UnstructuredGrid>
    <FieldData>
      <DataArray type="Float64" Name="TIME" NumberOfTuples="1" format="ascii">
2.500000100000000e-01 
      </DataArray>
    </FieldData>

    <Piece NumberOfPoints="32" NumberOfCells="0" >
      <Points>
        <DataArray type="Float64" NumberOfComponents="3" format="ascii">
-1.000000000000000e+00 1.000000000000000e+00 -1.000000000000000e+00
-1.000000000000000e+00 1.000000000000000e+00 0.000000000000000e+00
0.000000000000000e+00 1.000000000000000e+00 0.000000000000000e+00
0.000000000000000e+00 1.000000000000000e+00 -1.000000000000000e+00
0.000000000000000e+00 1.000000000000000e+00 0.000000000000000e+00
0.000000000000000e+00 1.000000000000000e+00 1.000000000000000e+00
1.000000000000000e+00 1.000000000000000e+00 1.000000000000000e+00
1.000000000000000e+00 1.000000000000000e+00 0.000000000000000e+00
0.000000000000000e+00 1.000000000000000e+00 -1.000000000000000e+00
0.000000000000000e+00 1.000000000000000e+00 0.000000000000000e+00
1.000000000000000e+00 1.000000000000000e+00 0.000000000000000e+00
1.000000000000000e+00 1.000000000000000e+00 -1.000000000000000e+00
-2.000000000000000e+00 1.000000000000000e+00 0.000000000000000e+00
-2.000000000000000e+00 1.000000000000000e+00 1.000000000000000e+00
-1.000000000000000e+00 1.000000000000000e+00 1.000000000000000e+00
-1.000000000000000e+00 1.000000000000000e+00 0.000000000000000e+00
1.000000000000000e+00 1.000000000000000e+00 -1.000000000000000e+00
1.000000000000000e+00 1.000000000000000e+00 0.000000000000000e+00
2.000000000000000e+00 1.000000000000000e+00 0.000000000000000e+00
2.000000000000000e+00 1.000000000000000e+00 -1.000000000000000e+00
1.000000000000000e+00 1.000000000000000e+00 0.000000000000000e+00
1.000000000000000e+00 1.000000000000000e+00 1.000000000000000e+00
2.000000000000000e+00 1.000000000000000e+00 1.000000000000000e+00
2.000000000000000e+00 1.000000000000000e+00 0.000000000000000e+00
-2.000000000000000e+00 1.000000000000000e+00 -1.000000000000000e+00
-2.000000000000000e+00 1.000000000000000e+00 0.000000000000000e+00
-1.000000000000000e+00 1.000000000000000e+00 0.000000000000000e+00
-1.000000000000000e+00 1.000000000000000e+00 -1.000000000000000e+00
-1.000000000000000e+00 1.000000000000000e+00 0.000000000000000e+00
-1.000000000000000e+00 1.000000000000000e+00 1.000000000000000e+00
0.000000000000000e+00 1.000000000000000e+00 1.000000000000000e+00
0.000000000000000e+00 1.000000000000000e+00 0.000000000000000e+00
        </DataArray>
      </Points>

      <Cells>
        <DataArray type="Int32" Name="connectivity" format="ascii">

        </DataArray>
        <DataArray type="Int32" Name="offsets" format="ascii">

        </DataArray>
        <DataArray type="UInt8" Name="types" format="ascii">

        </DataArray>
      </Cells>

  <PointData>
        <DataArray type="Int32" Name="coupling_id" format="ascii">
1
1
1
1
1
1
1
1
1
1
1
1
1
1
1
1
1
1
1
1
1
1
1
1
1
1
1
1
1
1
1
1
        </DataArray>
        <DataArray type="Float64" Name="displacement" NumberOfComponents="3" format="ascii">
-4.148207055802100e-03 -1.474960259817539e-01 -6.309645726730673e-02
-1.414754105942384e-03 -4.444208650669534e-02 -4.270184909505570e-02
-9.235934005673529e-03 -3.086376175668071e-02 -4.157339502261495e-02
-3.609979789648364e-03 -1.387850828486996e-01 -5.968745388492169e-02
-9.235934005673529e-03 -3.086376175668071e-02 -4.157339502261495e-02
-8.020789614481341e-03 9.578826748731784e-03 -3.511426241280213e-02
-1.200705317595219e-02 7.817678710297260e-03 -2.342232198447136e-02
-1.037229565798370e-02 -8.326209485449043e-03 -2.512147823234454e-02
-3.609979789648364e-03 -1.387850828486996e-01 -5.968745388492169e-02
-9.235934005673529e-03 -3.086376175668071e-02 -4.157339502261495e-02
-1.037229565798370e-02 -8.326209485449043e-03 -2.512147823234454e-02
-3.748776062773462e-03 -1.498637550367665e-02 -2.619751986096763e-02
4.294619105438269e-03 -1.197983831851035e-02 -3.797510432391156e-02
-9.866683394914588e-04 8.013202734502345e-03 -3.513083532522310e-02
-3.809087883463569e-03 1.234815212284879e-02 -3.810329677977520e-02
-1.414754105942384e-03 -4.444208650669534e-02 -4.270184909505570e-02
-3.748776062773462e-03 -1.498637550367665e-02 -2.619751986096763e-02
-1.037229565798370e-02 -8.326209485449043e-03 -2.512147823234454e-02
-8.308809380021653e-03 4.217088200427099e-03 -1.206024910763655e-02
9.553456065685140e-04 -4.389310033243721e-03 -9.093947874297292e-03
-1.037229565798370e-02 -8.326209485449043e-03 -2.512147823234454e-02
-1.200705317595219e-02 7.817678710297260e-03 -2.342232198447136e-02
-1.371516048518129e-02 1.219280131321998e-02 -1.388898987446729e-02
-8.308809380021653e-03 4.217088200427099e-03 -1.206024910763655e-02
4.707379436004189e-03 -2.342719393527382e-02 -4.002305062688216e-02
4.294619105438269e-03 -1.197983831851035e-02 -3.797510432391156e-02
-1.414754105942384e-03 -4.444208650669534e-02 -4.270184909505570e-02
-4.148207055802100e-03 -1.474960259817539e-01 -6.309645726730673e-02
-1.414754105942384e-03 -4.444208650669534e-02 -4.270184909505570e-02
-3.809087883463569e-03 1.234815212284879e-02 -3.810329677977520e-02
-8.020789614481341e-03 9.578826748731784e-03 -3.511426241280213e-02
-9.235934005673529e-03 -3.086376175668071e-02 -4.157339502261495e-02
        </DataArray>
        <DataArray type="Float64" Name="normal_averaged" NumberOfComponents="3" format="ascii">
5.660495468450460e-02 9.933283687425795e-01 -1.004720406698867e-01
9.305174540415087e-03 9.968723698441313e-01 -7.847860834723198e-02
-1.743171468576368e-02 9.971909295694734e-01 -7.284494016391063e-02
-6.360614076990594e-02 9.923782344174485e-01 -1.055447711204414e-01
-1.743171468576368e-02 9.971909295694734e-01 -7.284494016391063e-02
2.568713727204470e-03 9.991902170757549e-01 -4.015360270129730e-02
-1.135485365963723e-03 9.998694800084409e-01 -1.611625330633605e-02
-1.736709043820505e-02 9.997835734035738e-01 -1.145384311452651e-02
-6.360614076990594e-02 9.923782344174485e-01 -1.055447711204414e-01
-1.743171468576368e-02 9.971909295694734e-01 -7.284494016391062e-02
-1.736709043820505e-02 9.997835734035738e-01 -1.145384311452651e-02
-6.663633449779162e-02 9.977522174663280e-01 -7.078945240913620e-03
3.255333158891854e-02 9.993486021414152e-01 -1.557729117854779e-02
-4.405795684233576e-03 9.997911641681860e-01 -1.995537560689010e-02
-7.812686157584353e-04 9.984055734737810e-01 -5.644200984940683e-02
9.305174540415087e-03 9.968723698441312e-01 -7.847860834723198e-02
-6.663633449779162e-02 9.977522174663280e-01 -7.078945240913620e-03
-1.736709043820505e-02 9.997835734035738e-01 -1.145384311452651e-02
-1.240655543520331e-02 9.998877401308446e-01 -8.401459293822511e-03
-1.039789903419704e-02 9.999078501613962e-01 -8.727822253565462e-03
-1.736709043820505e-02 9.997835734035738e-01 -1.145384311452651e-02
-1.135485365963723e-03 9.998694800084409e-01 -1.611625330633605e-02
-4.305902905445675e-03 9.999586221225831e-01 -8.013316596382280e-03
-1.240655543520331e-02 9.998877401308446e-01 -8.401459293822511e-03
1.239414546894292e-01 9.922253701338506e-01 -1.128408933904423e-02
3.255333158891854e-02 9.993486021414152e-01 -1.557729117854779e-02
9.305174540415087e-03 9.968723698441312e-01 -7.847860834723198e-02
5.660495468450460e-02 9.933283687425795e-01 -1.004720406698867e-01
9.305174540415087e-03 9.968723698441312e-01 -7.847860834723197e-02
-7.812686157584353e-04 9.984055734737810e-01 -5.644200984940683e-02
2.568713727204470e-03 9.991902170757549e-01 -4.015360270129730e-02
-1.743171468576368e-02 9.971909295694734e-01 -7.284494016391063e-02
        </DataArray>
        <DataArray type="Float64" Name="normal_element" NumberOfComponents="3" format="ascii">
-8.319636668762677e-03 9.949065648186780e-01 -1.004575080638456e-01
-1.350067098420731e-02 9.948517086433656e-01 -1.004380888525477e-01
-1.348780965584617e-02 9.943305046360755e-01 -1.054747673183251e-01
-8.298118655509414e-03 9.943897321017020e-01 -1.054523680032097e-01
-2.187891160101114e-02 9.989555183676966e-01 -4.011465505126541e-02
2.238114275115550e-03 9.991910270189783e-01 -4.015323609935840e-02
1.957088590355738e-03 9.998682910534272e-01 -1.611118711171052e-02
-2.228869715874937e-02 9.996211760928427e-01 -1.614677322957325e-02
-1.187193352415420e-01 9.873270504733772e-01 -1.053138872293091e-01
-2.069474087995369e-02 9.942038183026265e-01 -1.055011628959137e-01
-2.244499126224778e-02 9.997249555193680e-01 -6.799682274575172e-03
-1.226296357014920e-01 9.924248109589225e-01 -7.413976049753751e-03
3.253110749424477e-02 9.992755585047666e-01 -1.975057518617068e-02
-4.405795684233576e-03 9.997911641681860e-01 -1.995537560689010e-02
-4.508514077648224e-03 9.983952303388662e-01 -5.645030856792213e-02
3.231192462385406e-02 9.978889855383959e-01 -5.633393354145966e-02
-1.043221303825839e-02 9.999229920952050e-01 -6.721518466599650e-03
-1.242843669804371e-02 9.999000847464319e-01 -6.734573878214418e-03
-1.240202507413904e-02 9.998848398517972e-01 -8.746245400527814e-03
-1.039789903419704e-02 9.999078501613962e-01 -8.727822253565462e-03
-1.230460479450957e-02 9.997941360107345e-01 -1.613326685453903e-02
-4.228048462454866e-03 9.998611061709977e-01 -1.612116536445813e-02
-4.305902905445675e-03 9.999586221225831e-01 -8.013316596382280e-03
-1.241108432104880e-02 9.998905215168453e-01 -8.056672188129973e-03
1.239414546894292e-01 9.922253701338506e-01 -1.128408933904423e-02
3.257498853526002e-02 9.994042349981095e-01 -1.140373578135333e-02
3.198866162230340e-02 9.944210219353184e-01 -1.005164497021800e-01
1.212908036896649e-01 9.875606180856725e-01 -1.000628130054297e-01
-1.359803441441716e-02 9.983118461536706e-01 -5.646725856028410e-02
2.945987699932616e-03 9.984020462247389e-01 -5.643292700831782e-02
2.899312898541229e-03 9.991892979242499e-01 -4.015396491457639e-02
-1.362742194167222e-02 9.991015151730855e-01 -4.013048404976698e-02
        </DataArray>
        <DataArray type="Int32" Name="uid_0_face_id" format="ascii">
3
3
3
3
4
4
4
4
5
5
5
5
0
0
0
0
7
7
7
7
6
6
6
6
1
1
1
1
2
2
2
2
        </DataArray>
      </PointData>

    </Piece>
  </UnstructuredGrid>
</VTKFile>
