<?xml version="1.0" ?> 
<!-- 
# vtk DataFile Version 3.0
-->
<VTKFile type="UnstructuredGrid" version="0.1" compressor="vtkZLibDataCompressor" byte_order="LittleEndian">
  <UnstructuredGrid>
    <FieldData>
      <DataArray type="Float64" Name="TIME" NumberOfTuples="1" format="ascii">
3.000000000000000e+00 
      </DataArray>
    </FieldData>

    <Piece NumberOfPoints="24" NumberOfCells="0" >
      <Points>
        <DataArray type="Float64" NumberOfComponents="3" format="ascii">
-4.412136061494365e-01 1.650000000000000e+00 -1.093974056221922e+00
-4.799323657086295e-01 1.650000000000000e+00 -9.442615192595794e-01
-5.402514715691770e-01 1.650000000000000e+00 -7.110276432653166e-01
-6.083708739247888e-01 1.650000000000000e+00 -4.476326208235781e-01
-6.686899797854002e-01 1.650000000000000e+00 -2.143987448293319e-01
-7.074087393446657e-01 1.650000000000000e+00 -6.468620786700774e-02
-7.181604526363410e-01 1.650000000000000e+00 -2.311291647259177e-02
-7.226297597180159e-01 1.650000000000000e+00 -5.831595756809596e-03
-7.295923951446667e-01 1.650000000000000e+00 2.109059455952737e-02
-7.374554189298634e-01 1.650000000000000e+00 5.149428652890079e-02
-7.444180543565156e-01 1.650000000000000e+00 7.841647684523732e-02
-7.488873614381922e-01 1.650000000000000e+00 9.569779756101901e-02
-7.572180175193927e-01 1.650000000000000e+00 1.279096677415954e-01
-7.862117428156554e-01 1.650000000000000e+00 2.400187388869522e-01
-8.313804312071817e-01 1.650000000000000e+00 4.146710006673157e-01
-8.823902068747445e-01 1.650000000000000e+00 6.119087999151147e-01
-9.275588952662228e-01 1.650000000000000e+00 7.865610616954906e-01
-9.565526205624308e-01 1.650000000000000e+00 8.986701328408619e-01
-9.648206165166160e-01 1.650000000000000e+00 9.306397171970582e-01
-9.690382269926325e-01 1.650000000000000e+00 9.469478110376633e-01
-9.756087498006373e-01 1.650000000000000e+00 9.723538325619621e-01
-9.830289540702389e-01 1.650000000000000e+00 1.001045289071104e+00
-9.895994768782432e-01 1.650000000000000e+00 1.026451310595403e+00
-9.938170873542591e-01 1.650000000000000e+00 1.042759404436008e+00
        </DataArray>
      </Points>

      <Cells>
        <DataArray type="Int32" Name="connectivity" format="ascii">

        </DataArray>
        <DataArray type="Int32" Name="offsets" format="ascii">

        </DataArray>
        <DataArray type="UInt8" Name="types" format="ascii">

        </DataArray>
      </Cells>

  <PointData>
        <DataArray type="Float64" Name="displacement" NumberOfComponents="3" format="ascii">
9.916171769767063e-01 -6.610893199070518e-01 -5.349524570354602e-02
9.904697301722081e-01 -6.117143681099564e-01 -6.148736501993923e-02
9.886644582463846e-01 -5.323132423935744e-01 -7.445508725364780e-02
9.866518015686552e-01 -4.407465992017789e-01 -8.961077694369551e-02
9.849446668029198e-01 -3.597207001358047e-01 -1.032373965122969e-01
9.839087883637110e-01 -3.084986059675947e-01 -1.119785908832520e-01
9.836315259523407e-01 -2.944535375205939e-01 -1.143952902113153e-01
9.835177316171755e-01 -2.886424439931425e-01 -1.153978957582713e-01
9.833422238012897e-01 -2.796233977422145e-01 -1.169572238748010e-01
9.831466918631675e-01 -2.694903949357983e-01 -1.187140002033590e-01
9.829759961361839e-01 -2.605667488274934e-01 -1.202655122196340e-01
9.828676724799337e-01 -2.548641120553761e-01 -1.212592319426314e-01
9.826671094486590e-01 -2.442625154460274e-01 -1.231090606011121e-01
9.819690545055528e-01 -2.073659289995853e-01 -1.295475250255848e-01
9.808811856997433e-01 -1.498814225874880e-01 -1.395795896586564e-01
9.796521189821048e-01 -8.495762591555445e-02 -1.509112928075953e-01
9.785633782645898e-01 -2.746376340289358e-02 -1.609472645197838e-01
9.778643320785788e-01 9.443459634666640e-03 -1.673901707523314e-01
9.776649639439888e-01 1.996837245873295e-02 -1.692275725036774e-01
9.775632596605521e-01 2.533730853392169e-02 -1.701648727760799e-01
9.774048114391248e-01 3.370151363730645e-02 -1.716250962760678e-01
9.772258654441883e-01 4.314743672429078e-02 -1.732741862467373e-01
9.770674037306437e-01 5.151178660564715e-02 -1.747344702055653e-01
9.769656841085371e-01 5.688088727334684e-02 -1.756718392112995e-01
        </DataArray>
        <DataArray type="Float64" Name="force" NumberOfComponents="3" format="ascii">
-1.202363200852078e-02 4.530426042141213e-01 -1.379358102705293e-01
-3.660452464756947e-03 3.973814074418882e-01 -1.148279902805159e-01
2.688913355851226e-03 2.914603513695224e-01 -7.752027089244701e-02
3.194964169555285e-03 1.734436013667472e-01 -4.190800037987357e-02
1.560687449666646e-03 9.102657779474317e-02 -2.015237157551870e-02
6.428445380724070e-04 5.330983570650265e-02 -1.114225204399635e-02
4.430510394929052e-04 4.286399450771795e-02 -8.814372747291393e-03
3.350772793007723e-04 3.205342176605265e-02 -6.544985984317508e-03
1.955062613244753e-04 1.841983703320462e-02 -3.719881396625907e-03
8.196524957088566e-05 7.616565370101940e-03 -1.519030905695410e-03
2.180986600699553e-05 2.007771168301010e-03 -3.959910547183803e-04
3.447359643511767e-06 3.158869588055598e-04 -6.185672746470433e-05
0.000000000000000e+00 0.000000000000000e+00 -0.000000000000000e+00
0.000000000000000e+00 0.000000000000000e+00 -0.000000000000000e+00
0.000000000000000e+00 0.000000000000000e+00 -0.000000000000000e+00
0.000000000000000e+00 0.000000000000000e+00 -0.000000000000000e+00
0.000000000000000e+00 0.000000000000000e+00 -0.000000000000000e+00
0.000000000000000e+00 0.000000000000000e+00 -0.000000000000000e+00
0.000000000000000e+00 0.000000000000000e+00 -0.000000000000000e+00
0.000000000000000e+00 0.000000000000000e+00 -0.000000000000000e+00
-0.000000000000000e+00 0.000000000000000e+00 -0.000000000000000e+00
-0.000000000000000e+00 0.000000000000000e+00 -0.000000000000000e+00
-0.000000000000000e+00 0.000000000000000e+00 -0.000000000000000e+00
-0.000000000000000e+00 0.000000000000000e+00 -0.000000000000000e+00
        </DataArray>
        <DataArray type="Float64" Name="gap" format="ascii">
2.662622598486097e-03
9.043365093852784e-03
2.233336579209771e-02
4.025665546741208e-02
5.681580798729630e-02
6.699527298402436e-02
7.041516290324812e-02
7.442011558071215e-02
8.061303789226354e-02
8.753645562055923e-02
9.360224206460749e-02
9.746265960203088e-02
1.046145562101302e-01
1.293489443270789e-01
1.674199258749284e-01
2.097745707602595e-01
2.467521401433252e-01
2.702453103122489e-01
2.769140302928979e-01
2.803289567572539e-01
2.856756261578484e-01
2.917525767785996e-01
2.971679365062501e-01
3.006609527136083e-01
        </DataArray>
        <DataArray type="Float64" Name="surface_normal" NumberOfComponents="3" format="ascii">
-2.538086330826681e-02 9.563343590548284e-01 -2.911707496794920e-01
-8.849036735708736e-03 9.606579258704842e-01 -2.775933068556761e-01
8.915338440707918e-03 9.663634824277726e-01 -2.570255562595981e-01
1.790263365705616e-02 9.718723248973296e-01 -2.348269145707127e-01
1.673772149338204e-02 9.762220539093285e-01 -2.161257738916444e-01
1.180276238371024e-02 9.787799169067712e-01 -2.045741163003955e-01
1.012384275436117e-02 9.794545132240600e-01 -2.014109339954127e-01
1.024183607541028e-02 9.797318757898325e-01 -2.000513842869896e-01
1.040330050478458e-02 9.801583775751825e-01 -1.979427346678660e-01
1.055301686910196e-02 9.806319538597982e-01 -1.955750620709991e-01
1.065681397381074e-02 9.810442593137249e-01 -1.934905516647061e-01
1.070925157208388e-02 9.813054801393220e-01 -1.921584413428166e-01
1.077755364592016e-02 9.817853524758643e-01 -1.896875483558475e-01
1.071946141216059e-02 9.833863847181151e-01 -1.812079233865576e-01
9.728868013730999e-03 9.856769689097746e-01 -1.683634820500297e-01
7.330756161655631e-03 9.879845130473656e-01 -1.543789557959844e-01
4.117937996464711e-03 9.897949014626082e-01 -1.424397964941096e-01
1.537369030669126e-03 9.908461157368083e-01 -1.349874491415534e-01
7.374674139153597e-04 9.911479395312787e-01 -1.327600019008513e-01
3.488930297607366e-04 9.913596423486589e-01 -1.311714061676288e-01
-2.631192906859398e-04 9.916811724387063e-01 -1.287182310274333e-01
-9.639916143191409e-04 9.920323730043225e-01 -1.259795286210436e-01
-1.593172326730450e-03 9.923330236522032e-01 -1.235824905527202e-01
-2.001264737175402e-03 9.925209872501913e-01 -1.220577109704969e-01
        </DataArray>
        <DataArray type="Int32" Name="uid_0_pair_beam_id" format="ascii">
16
16
16
16
16
16
16
16
16
16
16
16
17
17
17
17
17
17
17
17
17
17
17
17
        </DataArray>
        <DataArray type="Int32" Name="uid_1_pair_solid_id" format="ascii">
11
11
11
11
11
11
10
10
10
10
10
10
10
10
10
10
10
10
6
6
6
6
6
6
        </DataArray>
      </PointData>

    </Piece>
  </UnstructuredGrid>
</VTKFile>
