<?xml version="1.0" ?> 
<!-- 
# vtk DataFile Version 3.0
-->
<VTKFile type="UnstructuredGrid" version="0.1" compressor="vtkZLibDataCompressor" byte_order="LittleEndian">
  <UnstructuredGrid>
    <FieldData>
      <DataArray type="Float64" Name="TIME" NumberOfTuples="1" format="ascii">
2.500000100000000e-01 
      </DataArray>
    </FieldData>

    <Piece NumberOfPoints="19" NumberOfCells="0" >
      <Points>
        <DataArray type="Float64" NumberOfComponents="3" format="ascii">
-2.000000000000000e+00 -1.000000000000000e+00 1.000000000000000e+00
-2.000000000000000e+00 -1.000000000000000e+00 0.000000000000000e+00
-2.000000000000000e+00 0.000000000000000e+00 0.000000000000000e+00
-2.000000000000000e+00 0.000000000000000e+00 1.000000000000000e+00
-1.000000000000000e+00 -1.000000000000000e+00 1.000000000000000e+00
-1.000000000000000e+00 -1.000000000000000e+00 0.000000000000000e+00
-1.000000000000000e+00 0.000000000000000e+00 0.000000000000000e+00
-1.000000000000000e+00 0.000000000000000e+00 1.000000000000000e+00
-2.000000000000000e+00 -1.000000000000000e+00 -1.000000000000000e+00
-2.000000000000000e+00 0.000000000000000e+00 -1.000000000000000e+00
-1.000000000000000e+00 -1.000000000000000e+00 -1.000000000000000e+00
-1.000000000000000e+00 0.000000000000000e+00 -1.000000000000000e+00
-2.000000000000000e+00 1.000000000000000e+00 1.000000000000000e+00
-1.000000000000000e+00 1.000000000000000e+00 1.000000000000000e+00
0.000000000000000e+00 0.000000000000000e+00 1.000000000000000e+00
0.000000000000000e+00 1.000000000000000e+00 1.000000000000000e+00
-7.500000000000000e-01 1.650000000000000e+00 1.000000000000000e-01
-1.125000000000000e+00 1.650000000000000e+00 1.550000000000000e+00
-1.500000000000000e+00 1.650000000000000e+00 3.000000000000000e+00
        </DataArray>
      </Points>

      <Cells>
        <DataArray type="Int32" Name="connectivity" format="ascii">

        </DataArray>
        <DataArray type="Int32" Name="offsets" format="ascii">

        </DataArray>
        <DataArray type="UInt8" Name="types" format="ascii">

        </DataArray>
      </Cells>

  <PointData>
        <DataArray type="Float64" Name="displacement" NumberOfComponents="3" format="ascii">
0.000000000000000e+00 0.000000000000000e+00 0.000000000000000e+00
0.000000000000000e+00 0.000000000000000e+00 0.000000000000000e+00
-1.338785506268812e-02 -1.188557984987221e-02 -5.099790240381447e-03
-2.968038887196587e-03 5.459897251268667e-03 -5.833798142611174e-03
0.000000000000000e+00 0.000000000000000e+00 0.000000000000000e+00
0.000000000000000e+00 0.000000000000000e+00 0.000000000000000e+00
-6.727475010669948e-03 -1.943373512264029e-02 -3.735822304063560e-03
-3.647505442466218e-03 4.793340155307497e-03 -4.423469919288994e-03
0.000000000000000e+00 0.000000000000000e+00 0.000000000000000e+00
-3.417683495381705e-02 -3.256116063861664e-02 -7.437167942141369e-03
0.000000000000000e+00 0.000000000000000e+00 0.000000000000000e+00
-1.605184746691534e-02 -5.217568573782764e-02 -1.627704803934675e-02
-9.866683394914783e-04 8.013202734502293e-03 -3.513083532522305e-02
-3.809087883463466e-03 1.234815212284872e-02 -3.810329677977521e-02
-3.140122944731408e-03 5.325257728912815e-03 -4.761396170995656e-03
-8.020789614481341e-03 9.578826748731790e-03 -3.511426241280215e-02
-1.096715074648204e-03 -1.935363739705285e-01 -1.953803588256294e-02
-1.273281872877322e-01 -1.968400184630477e-03 -3.293413074363499e-02
-3.784523224163474e-04 1.993335998951158e-01 -4.608358735138732e-02
        </DataArray>
        <DataArray type="Float64" Name="force_beam" NumberOfComponents="3" format="ascii">
0.000000000000000e+00 0.000000000000000e+00 0.000000000000000e+00
0.000000000000000e+00 0.000000000000000e+00 0.000000000000000e+00
0.000000000000000e+00 0.000000000000000e+00 0.000000000000000e+00
0.000000000000000e+00 0.000000000000000e+00 0.000000000000000e+00
0.000000000000000e+00 0.000000000000000e+00 0.000000000000000e+00
0.000000000000000e+00 0.000000000000000e+00 0.000000000000000e+00
0.000000000000000e+00 0.000000000000000e+00 0.000000000000000e+00
0.000000000000000e+00 0.000000000000000e+00 0.000000000000000e+00
0.000000000000000e+00 0.000000000000000e+00 0.000000000000000e+00
0.000000000000000e+00 0.000000000000000e+00 0.000000000000000e+00
0.000000000000000e+00 0.000000000000000e+00 0.000000000000000e+00
0.000000000000000e+00 0.000000000000000e+00 0.000000000000000e+00
0.000000000000000e+00 0.000000000000000e+00 0.000000000000000e+00
0.000000000000000e+00 0.000000000000000e+00 0.000000000000000e+00
0.000000000000000e+00 0.000000000000000e+00 0.000000000000000e+00
0.000000000000000e+00 0.000000000000000e+00 0.000000000000000e+00
2.011528099352493e-04 -9.856886689455532e-02 9.132294071763440e-03
0.000000000000000e+00 0.000000000000000e+00 0.000000000000000e+00
-1.263926757386734e-10 -5.548179021949279e-08 4.034190029513789e-09
        </DataArray>
        <DataArray type="Float64" Name="force_solid" NumberOfComponents="3" format="ascii">
0.000000000000000e+00 0.000000000000000e+00 0.000000000000000e+00
0.000000000000000e+00 0.000000000000000e+00 0.000000000000000e+00
0.000000000000000e+00 0.000000000000000e+00 0.000000000000000e+00
0.000000000000000e+00 0.000000000000000e+00 0.000000000000000e+00
0.000000000000000e+00 0.000000000000000e+00 0.000000000000000e+00
0.000000000000000e+00 0.000000000000000e+00 0.000000000000000e+00
0.000000000000000e+00 0.000000000000000e+00 0.000000000000000e+00
0.000000000000000e+00 0.000000000000000e+00 0.000000000000000e+00
0.000000000000000e+00 0.000000000000000e+00 0.000000000000000e+00
0.000000000000000e+00 0.000000000000000e+00 0.000000000000000e+00
0.000000000000000e+00 0.000000000000000e+00 0.000000000000000e+00
0.000000000000000e+00 0.000000000000000e+00 0.000000000000000e+00
0.000000000000000e+00 0.000000000000000e+00 0.000000000000000e+00
2.540636128376249e-07 1.281927074513037e-04 -9.552678960829443e-06
0.000000000000000e+00 0.000000000000000e+00 0.000000000000000e+00
9.085626659577173e-08 4.620751460845965e-05 -3.447380380696476e-06
0.000000000000000e+00 0.000000000000000e+00 0.000000000000000e+00
0.000000000000000e+00 0.000000000000000e+00 0.000000000000000e+00
0.000000000000000e+00 0.000000000000000e+00 0.000000000000000e+00
        </DataArray>
        <DataArray type="Int32" Name="uid_0_node_id" format="ascii">
0
1
2
3
4
5
6
7
8
9
10
11
13
15
21
25
47
48
49
        </DataArray>
      </PointData>

    </Piece>
  </UnstructuredGrid>
</VTKFile>
