<?xml version="1.0" ?> 
<!-- 
# vtk DataFile Version 3.0
-->
<VTKFile type="UnstructuredGrid" version="0.1" compressor="vtkZLibDataCompressor" byte_order="LittleEndian">
  <UnstructuredGrid>
    <FieldData>
      <DataArray type="Float64" Name="TIME" NumberOfTuples="1" format="ascii">
3.000000000000000e+00 
      </DataArray>
    </FieldData>

    <Piece NumberOfPoints="24" NumberOfCells="0" >
      <Points>
        <DataArray type="Float64" NumberOfComponents="3" format="ascii">
0.000000000000000e+00 1.000000000000000e+00 0.000000000000000e+00
0.000000000000000e+00 1.000000000000000e+00 1.000000000000000e+00
1.000000000000000e+00 1.000000000000000e+00 1.000000000000000e+00
1.000000000000000e+00 1.000000000000000e+00 0.000000000000000e+00
0.000000000000000e+00 1.000000000000000e+00 -1.000000000000000e+00
0.000000000000000e+00 1.000000000000000e+00 0.000000000000000e+00
1.000000000000000e+00 1.000000000000000e+00 0.000000000000000e+00
1.000000000000000e+00 1.000000000000000e+00 -1.000000000000000e+00
1.000000000000000e+00 1.000000000000000e+00 0.000000000000000e+00
1.000000000000000e+00 1.000000000000000e+00 1.000000000000000e+00
2.000000000000000e+00 1.000000000000000e+00 1.000000000000000e+00
2.000000000000000e+00 1.000000000000000e+00 0.000000000000000e+00
1.000000000000000e+00 1.000000000000000e+00 -1.000000000000000e+00
1.000000000000000e+00 1.000000000000000e+00 0.000000000000000e+00
2.000000000000000e+00 1.000000000000000e+00 0.000000000000000e+00
2.000000000000000e+00 1.000000000000000e+00 -1.000000000000000e+00
-1.000000000000000e+00 1.000000000000000e+00 -1.000000000000000e+00
-1.000000000000000e+00 1.000000000000000e+00 0.000000000000000e+00
0.000000000000000e+00 1.000000000000000e+00 0.000000000000000e+00
0.000000000000000e+00 1.000000000000000e+00 -1.000000000000000e+00
-1.000000000000000e+00 1.000000000000000e+00 0.000000000000000e+00
-1.000000000000000e+00 1.000000000000000e+00 1.000000000000000e+00
0.000000000000000e+00 1.000000000000000e+00 1.000000000000000e+00
0.000000000000000e+00 1.000000000000000e+00 0.000000000000000e+00
        </DataArray>
      </Points>

      <Cells>
        <DataArray type="Int32" Name="connectivity" format="ascii">

        </DataArray>
        <DataArray type="Int32" Name="offsets" format="ascii">

        </DataArray>
        <DataArray type="UInt8" Name="types" format="ascii">

        </DataArray>
      </Cells>

  <PointData>
        <DataArray type="Int32" Name="coupling_id" format="ascii">
1
1
1
1
1
1
1
1
1
1
1
1
1
1
1
1
1
1
1
1
1
1
1
1
        </DataArray>
        <DataArray type="Float64" Name="displacement" NumberOfComponents="3" format="ascii">
1.974151424508881e-02 -1.133671909318876e-01 -4.454357604711517e-02
1.258152207172187e-02 1.216535411518405e-02 -4.418198412772112e-02
9.893256819996754e-03 5.577642982545150e-03 -4.496500309672169e-02
-6.106867428280482e-04 -8.210530405699645e-02 -5.390009176928534e-02
9.205750484658342e-03 -4.124608370300744e-01 -6.210042002983540e-02
1.974151424508881e-02 -1.133671909318876e-01 -4.454357604711517e-02
-6.106867428280482e-04 -8.210530405699645e-02 -5.390009176928534e-02
1.233670921054908e-02 -4.019009695825695e-01 -6.646420665279851e-02
-6.106867428280482e-04 -8.210530405699645e-02 -5.390009176928534e-02
9.893256819996754e-03 5.577642982545150e-03 -4.496500309672169e-02
4.371929947345699e-03 1.126203108174395e-02 -4.596816693120065e-02
-8.496231219860206e-03 -3.347811439547510e-02 -5.251192069288051e-02
1.233670921054908e-02 -4.019009695825695e-01 -6.646420665279851e-02
-6.106867428280482e-04 -8.210530405699645e-02 -5.390009176928534e-02
-8.496231219860206e-03 -3.347811439547510e-02 -5.251192069288051e-02
-4.104825158101932e-02 -2.609012553725798e-02 -7.064623654747426e-02
3.339609854615433e-02 -3.122724956184197e-02 -4.425863242753403e-02
2.737395309010793e-02 -2.360737611849018e-02 -3.585443018597877e-02
1.974151424508881e-02 -1.133671909318876e-01 -4.454357604711517e-02
9.205750484658342e-03 -4.124608370300744e-01 -6.210042002983540e-02
2.737395309010793e-02 -2.360737611849018e-02 -3.585443018597877e-02
1.778986127472892e-02 3.049438418375239e-03 -2.847332460751129e-02
1.258152207172187e-02 1.216535411518405e-02 -4.418198412772112e-02
1.974151424508881e-02 -1.133671909318876e-01 -4.454357604711517e-02
        </DataArray>
        <DataArray type="Float64" Name="normal_averaged" NumberOfComponents="3" format="ascii">
2.667897539023950e-02 9.786324761553187e-01 -2.038791526523414e-01
-2.301431431134357e-03 9.922136069522729e-01 -1.245265497479493e-01
3.653895327712009e-04 9.962444991839734e-01 -8.658385724927876e-02
-4.044491965310622e-02 9.799855290279698e-01 -1.949168319310162e-01
1.703410551354275e-01 9.449131680861644e-01 -2.795049726082122e-01
2.667897539023951e-02 9.786324761553187e-01 -2.038791526523414e-01
-4.044491965310622e-02 9.799855290279698e-01 -1.949168319310162e-01
-1.858833097301031e-01 9.362681317303644e-01 -2.980761323385616e-01
-4.044491965310622e-02 9.799855290279698e-01 -1.949168319310162e-01
3.653895327712009e-04 9.962444991839734e-01 -8.658385724927876e-02
-5.754951970492559e-03 9.990003097961012e-01 -4.433127062369479e-02
-4.892307787859066e-02 9.986498566841590e-01 -1.746414027641160e-02
-1.858833097301031e-01 9.362681317303644e-01 -2.980761323385616e-01
-4.044491965310622e-02 9.799855290279698e-01 -1.949168319310162e-01
-4.892307787859066e-02 9.986498566841590e-01 -1.746414027641160e-02
-3.688555427017804e-01 9.293018810474607e-01 1.853651800706905e-02
2.003796950873801e-01 9.796986575340754e-01 -6.206305069797512e-03
6.248934043494023e-02 9.979094228305977e-01 -1.648836431881278e-02
2.667897539023950e-02 9.786324761553187e-01 -2.038791526523414e-01
1.703410551354275e-01 9.449131680861644e-01 -2.795049726082122e-01
6.248934043494021e-02 9.979094228305976e-01 -1.648836431881277e-02
4.494939983701888e-03 9.996411094205871e-01 -2.640923836313733e-02
-2.301431431134357e-03 9.922136069522729e-01 -1.245265497479493e-01
2.667897539023950e-02 9.786324761553187e-01 -2.038791526523414e-01
        </DataArray>
        <DataArray type="Float64" Name="normal_element" NumberOfComponents="3" format="ascii">
-3.283578337890911e-02 9.916541646325283e-01 -1.246748936107675e-01
6.456248263700137e-03 9.922032980029327e-01 -1.244625738543961e-01
6.512457970847764e-03 9.962179167464256e-01 -8.664554370877992e-02
-3.259881920362864e-02 9.957446234023277e-01 -8.619722705450385e-02
-1.132555639075176e-02 9.593836026562159e-01 -2.818773398604786e-01
-3.329104594167839e-02 9.589748190395070e-01 -2.815297545700166e-01
-3.328750596720426e-02 9.529214650105821e-01 -3.013845109964501e-01
-1.134768707358603e-02 9.534691555668826e-01 -3.012769479742118e-01
-4.865364810048435e-02 9.951086146114062e-01 -8.597480824451907e-02
-5.781692713727394e-03 9.962334325832830e-01 -8.651889870249878e-02
-5.754951970492559e-03 9.990003097961012e-01 -4.433127062369479e-02
-4.884705266300687e-02 9.978485484332925e-01 -4.372916458964816e-02
-3.546995252593443e-01 8.902592572404704e-01 -2.857038706045857e-01
-4.625803595349076e-02 9.523814394126124e-01 -3.013798068419418e-01
-4.896532173938221e-02 9.987615978312225e-01 8.812943014804283e-03
-3.688555427017804e-01 9.293018810474607e-01 1.853651800706905e-02
3.638170185783542e-01 9.314577293591799e-01 -4.865738361044089e-03
9.001953907771650e-02 9.959154842048107e-01 -6.987911371292418e-03
8.398371816313568e-02 9.557883262955156e-01 -2.818073994782822e-01
3.463493150784801e-01 8.990548163970910e-01 -2.678480708496162e-01
8.983176387409036e-02 9.956306801408609e-01 -2.549123303248330e-02
-9.579117792727505e-03 9.996017995152783e-01 -2.654209690529960e-02
-1.105893460352493e-02 9.921478119741093e-01 -1.245809743115792e-01
8.832212373829500e-02 9.884185477743033e-01 -1.234016891055174e-01
        </DataArray>
        <DataArray type="Int32" Name="uid_0_face_id" format="ascii">
4
4
4
4
5
5
5
5
6
6
6
6
7
7
7
7
3
3
3
3
2
2
2
2
        </DataArray>
      </PointData>

    </Piece>
  </UnstructuredGrid>
</VTKFile>
