<?xml version="1.0" ?> 
<!-- 
# vtk DataFile Version 3.0
-->
<VTKFile type="UnstructuredGrid" version="0.1" compressor="vtkZLibDataCompressor" byte_order="LittleEndian">
  <UnstructuredGrid>
    <FieldData>
      <DataArray type="Float64" Name="TIME" NumberOfTuples="1" format="ascii">
3.000000000000000e+00 
      </DataArray>
    </FieldData>

    <Piece NumberOfPoints="8" NumberOfCells="0" >
      <Points>
        <DataArray type="Float64" NumberOfComponents="3" format="ascii">
-4.315745314195904e-01 1.650000000000000e+00 -1.131245145177363e+00
-7.170478140745339e-01 1.650000000000000e+00 -2.741511891157301e-02
-7.170478140745338e-01 1.650000000000000e+00 -2.741511891157283e-02
-7.500000000000000e-01 1.650000000000000e+00 1.000000000000000e-01
-7.500000000000000e-01 1.650000000000000e+00 1.000000000000000e-01
-9.637706380818069e-01 1.650000000000000e+00 9.265798005824611e-01
-9.637706380818069e-01 1.650000000000000e+00 9.265798005824610e-01
-9.948670657890679e-01 1.650000000000000e+00 1.046819321050605e+00
        </DataArray>
      </Points>

      <Cells>
        <DataArray type="Int32" Name="connectivity" format="ascii">

        </DataArray>
        <DataArray type="Int32" Name="offsets" format="ascii">

        </DataArray>
        <DataArray type="UInt8" Name="types" format="ascii">

        </DataArray>
      </Cells>

  <PointData>
        <DataArray type="Float64" Name="displacement" NumberOfComponents="3" format="ascii">
9.918996544332221e-01 -6.731275514979647e-01 -5.155446281547560e-02
9.836599904983095e-01 -2.959027700806287e-01 -1.141455000705299e-01
9.836599904983093e-01 -2.959027700806289e-01 -1.141455000705299e-01
9.828408593898099e-01 -2.534476197722442e-01 -1.215063396840031e-01
9.828408593898099e-01 -2.534476197722442e-01 -1.215063396840031e-01
9.776902829069456e-01 1.863177487142043e-02 -1.689942325359072e-01
9.776902829069456e-01 1.863177487142020e-02 -1.689942325359070e-01
9.769403605152341e-01 5.821753454686296e-02 -1.759051999278768e-01
        </DataArray>
        <DataArray type="Float64" Name="force" NumberOfComponents="3" format="ascii">
-1.464918411007472e-02 4.642240382141195e-01 -1.431754072766771e-01
4.720701568298427e-04 4.580910137590660e-02 -9.436525807457375e-03
4.720701568298582e-04 4.580910137590808e-02 -9.436525807457682e-03
1.338837079442721e-06 1.225581086901695e-04 -2.395632328506745e-05
1.338837079442721e-06 1.225581086901695e-04 -2.395632328506745e-05
0.000000000000000e+00 0.000000000000000e+00 -0.000000000000000e+00
0.000000000000000e+00 0.000000000000000e+00 -0.000000000000000e+00
-0.000000000000000e+00 0.000000000000000e+00 -0.000000000000000e+00
        </DataArray>
        <DataArray type="Float64" Name="gap" format="ascii">
1.407669707171655e-03
6.941460068718019e-02
6.941460068717970e-02
9.841959056896421e-02
9.841959056896421e-02
2.760659634531210e-01
2.760659634531205e-01
3.015325924732618e-01
        </DataArray>
        <DataArray type="Float64" Name="surface_normal" NumberOfComponents="3" format="ascii">
-3.014096618610825e-02 9.551495109524585e-01 -2.945860381699161e-01
1.009272016832048e-02 9.793850228831543e-01 -2.017501275136335e-01
1.009272016832048e-02 9.793850228831543e-01 -2.017501275136335e-01
1.072058543344955e-02 9.813700971905069e-01 -1.918275303189271e-01
1.072058543344955e-02 9.813700971905069e-01 -1.918275303189271e-01
8.336823326379032e-04 9.910945826009551e-01 -1.331571752208910e-01
8.336823326379073e-04 9.910945826009550e-01 -1.331571752208910e-01
-2.103371628708307e-03 9.925671774703020e-01 -1.216798012672179e-01
        </DataArray>
        <DataArray type="Int32" Name="uid_0_pair_beam_id" format="ascii">
16
16
16
16
17
17
17
17
        </DataArray>
        <DataArray type="Int32" Name="uid_1_pair_solid_id" format="ascii">
11
11
10
10
10
10
6
6
        </DataArray>
      </PointData>

    </Piece>
  </UnstructuredGrid>
</VTKFile>
