<?xml version="1.0" ?> 
<!-- 
# vtk DataFile Version 3.0
-->
<VTKFile type="UnstructuredGrid" version="0.1" compressor="vtkZLibDataCompressor" byte_order="LittleEndian">
  <UnstructuredGrid>
    <FieldData>
      <DataArray type="Float64" Name="TIME" NumberOfTuples="1" format="ascii">
2.500000100000000e-01 
      </DataArray>
    </FieldData>

    <Piece NumberOfPoints="24" NumberOfCells="0" >
      <Points>
        <DataArray type="Float64" NumberOfComponents="3" format="ascii">
-2.000000000000000e+00 1.000000000000000e+00 0.000000000000000e+00
-2.000000000000000e+00 1.000000000000000e+00 1.000000000000000e+00
-1.000000000000000e+00 1.000000000000000e+00 1.000000000000000e+00
-1.000000000000000e+00 1.000000000000000e+00 0.000000000000000e+00
0.000000000000000e+00 1.000000000000000e+00 0.000000000000000e+00
0.000000000000000e+00 1.000000000000000e+00 1.000000000000000e+00
1.000000000000000e+00 1.000000000000000e+00 1.000000000000000e+00
1.000000000000000e+00 1.000000000000000e+00 0.000000000000000e+00
-1.000000000000000e+00 1.000000000000000e+00 0.000000000000000e+00
-1.000000000000000e+00 1.000000000000000e+00 1.000000000000000e+00
0.000000000000000e+00 1.000000000000000e+00 1.000000000000000e+00
0.000000000000000e+00 1.000000000000000e+00 0.000000000000000e+00
0.000000000000000e+00 1.000000000000000e+00 -1.000000000000000e+00
0.000000000000000e+00 1.000000000000000e+00 0.000000000000000e+00
1.000000000000000e+00 1.000000000000000e+00 0.000000000000000e+00
1.000000000000000e+00 1.000000000000000e+00 -1.000000000000000e+00
-1.000000000000000e+00 1.000000000000000e+00 -1.000000000000000e+00
-1.000000000000000e+00 1.000000000000000e+00 0.000000000000000e+00
0.000000000000000e+00 1.000000000000000e+00 0.000000000000000e+00
0.000000000000000e+00 1.000000000000000e+00 -1.000000000000000e+00
-2.000000000000000e+00 1.000000000000000e+00 -1.000000000000000e+00
-2.000000000000000e+00 1.000000000000000e+00 0.000000000000000e+00
-1.000000000000000e+00 1.000000000000000e+00 0.000000000000000e+00
-1.000000000000000e+00 1.000000000000000e+00 -1.000000000000000e+00
        </DataArray>
      </Points>

      <Cells>
        <DataArray type="Int32" Name="connectivity" format="ascii">

        </DataArray>
        <DataArray type="Int32" Name="offsets" format="ascii">

        </DataArray>
        <DataArray type="UInt8" Name="types" format="ascii">

        </DataArray>
      </Cells>

  <PointData>
        <DataArray type="Int32" Name="coupling_id" format="ascii">
1
1
1
1
1
1
1
1
1
1
1
1
1
1
1
1
1
1
1
1
1
1
1
1
        </DataArray>
        <DataArray type="Float64" Name="displacement" NumberOfComponents="3" format="ascii">
4.294619105438713e-03 -1.197983831851013e-02 -3.797510432391163e-02
-9.866683394910147e-04 8.013202734502567e-03 -3.513083532522321e-02
-3.809087883463347e-03 1.234815212284901e-02 -3.810329677977542e-02
-1.414754105942384e-03 -4.444208650669512e-02 -4.270184909505590e-02
-9.235934005673485e-03 -3.086376175668060e-02 -4.157339502261518e-02
-8.020789614481367e-03 9.578826748731784e-03 -3.511426241280247e-02
-1.200705317595208e-02 7.817678710297482e-03 -2.342232198447169e-02
-1.037229565798381e-02 -8.326209485449154e-03 -2.512147823234470e-02
-1.414754105942384e-03 -4.444208650669512e-02 -4.270184909505590e-02
-3.809087883463347e-03 1.234815212284901e-02 -3.810329677977542e-02
-8.020789614481367e-03 9.578826748731784e-03 -3.511426241280247e-02
-9.235934005673485e-03 -3.086376175668060e-02 -4.157339502261518e-02
-3.609979789648260e-03 -1.387850828486996e-01 -5.968745388492169e-02
-9.235934005673485e-03 -3.086376175668060e-02 -4.157339502261518e-02
-1.037229565798381e-02 -8.326209485449154e-03 -2.512147823234470e-02
-3.748776062773129e-03 -1.498637550367665e-02 -2.619751986096763e-02
-4.148207055802100e-03 -1.474960259817537e-01 -6.309645726730673e-02
-1.414754105942384e-03 -4.444208650669512e-02 -4.270184909505590e-02
-9.235934005673485e-03 -3.086376175668060e-02 -4.157339502261518e-02
-3.609979789648260e-03 -1.387850828486996e-01 -5.968745388492169e-02
4.707379436003967e-03 -2.342719393527382e-02 -4.002305062688216e-02
4.294619105438713e-03 -1.197983831851013e-02 -3.797510432391163e-02
-1.414754105942384e-03 -4.444208650669512e-02 -4.270184909505590e-02
-4.148207055802100e-03 -1.474960259817537e-01 -6.309645726730673e-02
        </DataArray>
        <DataArray type="Float64" Name="normal_averaged" NumberOfComponents="3" format="ascii">
3.255333158891855e-02 9.993486021414152e-01 -1.557729117854792e-02
-4.405795684233578e-03 9.997911641681860e-01 -1.995537560689011e-02
-7.812686157583306e-04 9.984055734737811e-01 -5.644200984940684e-02
9.305174540415146e-03 9.968723698441313e-01 -7.847860834723198e-02
-1.743171468576351e-02 9.971909295694735e-01 -7.284494016391066e-02
2.568713727204467e-03 9.991902170757549e-01 -4.015360270129720e-02
-1.135485365963719e-03 9.998694800084409e-01 -1.611625330633638e-02
-1.736709043820500e-02 9.997835734035738e-01 -1.145384311452662e-02
9.305174540415146e-03 9.968723698441313e-01 -7.847860834723198e-02
-7.812686157583306e-04 9.984055734737811e-01 -5.644200984940684e-02
2.568713727204467e-03 9.991902170757549e-01 -4.015360270129720e-02
-1.743171468576351e-02 9.971909295694735e-01 -7.284494016391066e-02
-6.360614076990583e-02 9.923782344174485e-01 -1.055447711204416e-01
-1.743171468576351e-02 9.971909295694735e-01 -7.284494016391066e-02
-1.736709043820500e-02 9.997835734035738e-01 -1.145384311452662e-02
-6.663633449779161e-02 9.977522174663280e-01 -7.078945240913541e-03
5.660495468450460e-02 9.933283687425795e-01 -1.004720406698867e-01
9.305174540415146e-03 9.968723698441313e-01 -7.847860834723198e-02
-1.743171468576351e-02 9.971909295694735e-01 -7.284494016391066e-02
-6.360614076990583e-02 9.923782344174485e-01 -1.055447711204416e-01
1.239414546894289e-01 9.922253701338506e-01 -1.128408933904453e-02
3.255333158891855e-02 9.993486021414152e-01 -1.557729117854792e-02
9.305174540415146e-03 9.968723698441313e-01 -7.847860834723198e-02
5.660495468450460e-02 9.933283687425795e-01 -1.004720406698867e-01
        </DataArray>
        <DataArray type="Float64" Name="normal_element" NumberOfComponents="3" format="ascii">
3.253110749424479e-02 9.992755585047666e-01 -1.975057518617068e-02
-4.405795684233578e-03 9.997911641681860e-01 -1.995537560689011e-02
-4.508514077648231e-03 9.983952303388662e-01 -5.645030856792212e-02
3.231192462385406e-02 9.978889855383959e-01 -5.633393354145967e-02
-2.187891160101092e-02 9.989555183676965e-01 -4.011465505126530e-02
2.238114275115326e-03 9.991910270189783e-01 -4.015323609935830e-02
1.957088590355518e-03 9.998682910534271e-01 -1.611118711171085e-02
-2.228869715874915e-02 9.996211760928427e-01 -1.614677322957358e-02
-1.359803441441705e-02 9.983118461536707e-01 -5.646725856028410e-02
2.945987699932832e-03 9.984020462247388e-01 -5.643292700831781e-02
2.899312898541447e-03 9.991892979242499e-01 -4.015396491457629e-02
-1.362742194167210e-02 9.991015151730854e-01 -4.013048404976687e-02
-1.187193352415420e-01 9.873270504733772e-01 -1.053138872293093e-01
-2.069474087995346e-02 9.942038183026264e-01 -1.055011628959138e-01
-2.244499126224756e-02 9.997249555193680e-01 -6.799682274575071e-03
-1.226296357014920e-01 9.924248109589225e-01 -7.413976049753695e-03
-8.319636668762457e-03 9.949065648186780e-01 -1.004575080638456e-01
-1.350067098420719e-02 9.948517086433656e-01 -1.004380888525477e-01
-1.348780965584606e-02 9.943305046360754e-01 -1.054747673183252e-01
-8.298118655509196e-03 9.943897321017020e-01 -1.054523680032099e-01
1.239414546894289e-01 9.922253701338504e-01 -1.128408933904453e-02
3.257498853526002e-02 9.994042349981095e-01 -1.140373578135358e-02
3.198866162230341e-02 9.944210219353184e-01 -1.005164497021800e-01
1.212908036896646e-01 9.875606180856725e-01 -1.000628130054298e-01
        </DataArray>
        <DataArray type="Int32" Name="uid_0_face_id" format="ascii">
0
0
0
0
4
4
4
4
2
2
2
2
5
5
5
5
3
3
3
3
1
1
1
1
        </DataArray>
      </PointData>

    </Piece>
  </UnstructuredGrid>
</VTKFile>
