<?xml version="1.0" ?> 
<!-- 
# vtk DataFile Version 3.0
-->
<VTKFile type="UnstructuredGrid" version="0.1" compressor="vtkZLibDataCompressor" byte_order="LittleEndian">
  <UnstructuredGrid>
    <FieldData>
      <DataArray type="Float64" Name="TIME" NumberOfTuples="1" format="ascii">
2.500000100000000e-01 
      </DataArray>
    </FieldData>

    <Piece NumberOfPoints="12" NumberOfCells="0" >
      <Points>
        <DataArray type="Float64" NumberOfComponents="3" format="ascii">
-7.097895125812240e-01 1.650000000000000e+00 -5.548055135232892e-02
-7.154338458415469e-01 1.650000000000000e+00 -3.365579607911252e-02
-7.242270287667667e-01 1.650000000000000e+00 3.445112316834281e-04
-7.341573212855941e-01 1.650000000000000e+00 3.874164230441625e-02
-7.429505042108161e-01 1.650000000000000e+00 7.274194961521123e-02
-7.485948374711420e-01 1.650000000000000e+00 9.456670488842663e-02
-4.493645746043962e-01 1.650000000000000e+00 -1.062456978196049e+00
-4.857230976537560e-01 1.650000000000000e+00 -9.218706890717390e-01
-5.423652428494113e-01 1.650000000000000e+00 -7.028543943150732e-01
-6.063321903666398e-01 1.650000000000000e+00 -4.555155305817537e-01
-6.629743355623514e-01 1.650000000000000e+00 -2.364992358251022e-01
-6.993328586117753e-01 1.650000000000000e+00 -9.591294670080888e-02
        </DataArray>
      </Points>

      <Cells>
        <DataArray type="Int32" Name="connectivity" format="ascii">

        </DataArray>
        <DataArray type="Int32" Name="offsets" format="ascii">

        </DataArray>
        <DataArray type="UInt8" Name="types" format="ascii">

        </DataArray>
      </Cells>

  <PointData>
        <DataArray type="Float64" Name="displacement" NumberOfComponents="3" format="ascii">
-1.093689366023165e-03 -2.149316075505208e-01 -1.809252791945018e-02
-1.095185330225901e-03 -2.118947900241963e-01 -1.829650453792654e-02
-1.096834983175143e-03 -2.071840633453705e-01 -1.861366714419482e-02
-1.097678377230848e-03 -2.018960292144276e-01 -1.897083065467736e-02
-1.097499965528770e-03 -1.972439356472890e-01 -1.928607500611639e-02
-1.096917673292785e-03 -1.942737758520099e-01 -1.948787083440769e-02
-7.471851751356118e-04 -3.568967630638700e-01 -8.866684760175270e-03
-8.189350089414238e-04 -3.377644405336366e-01 -1.008208312222947e-02
-9.199585310041281e-04 -3.070873305185806e-01 -1.204645535378435e-02
-1.012309984854021e-03 -2.717528127607720e-01 -1.433583927131815e-02
-1.068853487506294e-03 -2.404388167794820e-01 -1.639302975102969e-02
-1.090035696885039e-03 -2.205824430736845e-01 -1.771394961183703e-02
        </DataArray>
        <DataArray type="Float64" Name="force" NumberOfComponents="3" format="ascii">
4.049409991826273e-05 2.713085639490406e-02 -2.087218621418494e-03
3.664336392979712e-05 2.271141410802570e-02 -1.735660485878164e-03
2.976753717890968e-05 1.665983981134478e-02 -1.260058513481879e-03
2.159615124348646e-05 1.101476164010061e-02 -8.233805042852353e-04
1.474111561047278e-05 7.035442628390154e-03 -5.204698607827046e-04
1.079551214570180e-05 4.970060921235905e-03 -3.652234106658754e-04
-2.224399224246096e-03 2.135193605313016e-01 -2.201109332977380e-02
-1.045232953647764e-03 1.823677828374626e-01 -1.806892681575966e-02
-5.836709374627397e-05 1.334690333810161e-01 -1.242219411680522e-02
2.229343092633648e-04 8.380984806189654e-02 -7.260025945895776e-03
1.423567741407872e-04 4.890943070193503e-02 -3.971854924659014e-03
5.946711125781874e-05 3.187391419827892e-02 -2.482097501162664e-03
        </DataArray>
        <DataArray type="Float64" Name="gap" format="ascii">
7.667145330016772e-02
7.865630365299620e-02
8.172025693985346e-02
8.513694867234362e-02
8.812171435712041e-02
9.001653996598374e-02
3.447711582388802e-02
3.945849217629432e-02
4.822242238855623e-02
5.898195383907107e-02
6.867248937464737e-02
7.471345541563318e-02
        </DataArray>
        <DataArray type="Float64" Name="surface_normal" NumberOfComponents="3" format="ascii">
1.488148863707613e-03 9.970527360032021e-01 -7.670480455283472e-02
1.608740755354683e-03 9.970912484267804e-01 -7.620009359512898e-02
1.781692395528338e-03 9.971503428111442e-01 -7.541895918020443e-02
1.955196453484717e-03 9.972157840485403e-01 -7.454433077896216e-02
2.089550244163662e-03 9.972726115456190e-01 -7.377650059983808e-02
2.166262484446717e-03 9.973085457899893e-01 -7.328691425558392e-02
-1.036231329992501e-02 9.946750948786534e-01 -1.025381787005026e-01
-5.703436661443589e-03 9.951112762675879e-01 -9.859522633140551e-02
-4.354262509262473e-04 9.956966689566588e-01 -9.267121361347343e-02
2.650067692620735e-03 9.962655430030883e-01 -8.630147719469199e-02
2.901057668027297e-03 9.967146265647581e-01 -8.094156568958551e-02
1.860063900074758e-03 9.969799423627421e-01 -7.763719912948371e-02
        </DataArray>
        <DataArray type="Int32" Name="uid_0_pair_beam_id" format="ascii">
16
16
16
16
16
16
16
16
16
16
16
16
        </DataArray>
        <DataArray type="Int32" Name="uid_1_pair_solid_id" format="ascii">
6
6
6
6
6
6
7
7
7
7
7
7
        </DataArray>
      </PointData>

    </Piece>
  </UnstructuredGrid>
</VTKFile>
