<?xml version="1.0" ?> 
<!-- 
# vtk DataFile Version 3.0
-->
<VTKFile type="UnstructuredGrid" version="0.1" compressor="vtkZLibDataCompressor" byte_order="LittleEndian">
  <UnstructuredGrid>
    <FieldData>
      <DataArray type="Float64" Name="TIME" NumberOfTuples="1" format="ascii">
3.000000000000000e+00 
      </DataArray>
    </FieldData>

    <Piece NumberOfPoints="12" NumberOfCells="2" >
      <Points>
        <DataArray type="Float64" NumberOfComponents="3" format="ascii">
-2.500000000000000e+00 0.000000000000000e+00 6.000000000000000e-01
-2.000597322135765e+00 0.000000000000000e+00 6.000000000000000e-01
-1.501194644271529e+00 0.000000000000000e+00 6.000000000000000e-01
-1.001791966407293e+00 0.000000000000000e+00 6.000000000000000e-01
-5.023892885430585e-01 0.000000000000000e+00 6.000000000000000e-01
-2.986610678822776e-03 0.000000000000000e+00 5.999999999999999e-01
-2.986610678823554e-03 0.000000000000000e+00 6.000000000000000e-01
4.976107114569417e-01 0.000000000000000e+00 6.000000000000001e-01
9.982080335927057e-01 0.000000000000000e+00 5.999999999999999e-01
1.498805355728471e+00 0.000000000000000e+00 6.000000000000000e-01
1.999402677864236e+00 0.000000000000000e+00 6.000000000000000e-01
2.500000000000000e+00 0.000000000000000e+00 6.000000000000000e-01
        </DataArray>
      </Points>

      <Cells>
        <DataArray type="Int32" Name="connectivity" format="ascii">
0 1 2 3 4 5 6 7 8 9 10 11 
        </DataArray>
        <DataArray type="Int32" Name="offsets" format="ascii">
6 12 
        </DataArray>
        <DataArray type="UInt8" Name="types" format="ascii">
4 4 
        </DataArray>
      </Cells>

  <PointData>
        <DataArray type="Float64" Name="displacement" NumberOfComponents="3" format="ascii">
0.000000000000000e+00 0.000000000000000e+00 0.000000000000000e+00
3.343393922872195e-04 -8.776530194805149e-03 1.435879584121835e-05
5.634542809684895e-04 -2.483063564386867e-02 -2.096879694777898e-03
6.621770874271071e-04 -4.563599861261533e-02 -6.665062285657886e-03
6.053402330494784e-04 -6.866630136646990e-02 -1.402153579059917e-02
3.677761392211210e-04 -9.139522617085719e-02 -2.449764702340163e-02
3.677761392208989e-04 -9.139522617085717e-02 -2.449764702340163e-02
-7.701058588127641e-05 -1.113386500469352e-01 -3.846246111126606e-02
-7.540269929156018e-04 -1.258963424306887e-01 -5.622852040520265e-02
-1.688621706485538e-03 -1.325238122185150e-01 -7.812955530198051e-02
-2.906143351195434e-03 -1.286765683068114e-01 -1.044992961983669e-01
-4.431940551648417e-03 -1.118101195919752e-01 -1.356714734911302e-01
        </DataArray>
        <DataArray type="Float64" Name="lambda" NumberOfComponents="3" format="ascii">
-8.047916455072451e-05 1.002494160598489e-02 2.770229703276073e-03
-1.868713162048137e-04 6.402632095943661e-03 1.202584208052275e-04
-2.810993493443372e-04 3.588304251505759e-03 -1.811972820058058e-03
-3.631632639692951e-04 1.581958072671179e-03 -3.026464019313784e-03
-4.330630600796872e-04 3.835935594399225e-04 -3.523215176961950e-03
-4.907987376755136e-04 -6.789288188012456e-06 -3.302226293002556e-03
-4.907987376755136e-04 -6.789288188012464e-06 -3.302226293002557e-03
-5.364647266141846e-04 4.127772042188808e-04 -2.360391267323282e-03
-5.699083307284130e-04 1.644195606509153e-03 -6.973782144869545e-04
-5.911295500181989e-04 3.687465918682804e-03 1.686812865506424e-03
-6.001283844835418e-04 6.542588140739835e-03 4.792181972656857e-03
-5.969048341244424e-04 1.020956227268024e-02 8.618729106964337e-03
        </DataArray>
        <DataArray type="Float64" Name="uid_0_pair_beam_id" format="ascii">
2.000000000000000e+00
2.000000000000000e+00
2.000000000000000e+00
2.000000000000000e+00
2.000000000000000e+00
2.000000000000000e+00
2.000000000000000e+00
2.000000000000000e+00
2.000000000000000e+00
2.000000000000000e+00
2.000000000000000e+00
2.000000000000000e+00
        </DataArray>
        <DataArray type="Float64" Name="uid_1_pair_solid_id" format="ascii">
0.000000000000000e+00
0.000000000000000e+00
0.000000000000000e+00
0.000000000000000e+00
0.000000000000000e+00
0.000000000000000e+00
1.000000000000000e+00
1.000000000000000e+00
1.000000000000000e+00
1.000000000000000e+00
1.000000000000000e+00
1.000000000000000e+00
        </DataArray>
  </PointData>
  <CellData>
        <DataArray type="Float64" Name="uid_0_pair_beam_id" format="ascii">
2.000000000000000e+00
2.000000000000000e+00
        </DataArray>
        <DataArray type="Float64" Name="uid_1_pair_solid_id" format="ascii">
0.000000000000000e+00
1.000000000000000e+00
        </DataArray>
      </CellData>

    </Piece>
  </UnstructuredGrid>
</VTKFile>
