<?xml version="1.0" ?> 
<!-- 
# vtk DataFile Version 3.0
-->
<VTKFile type="UnstructuredGrid" version="0.1" compressor="vtkZLibDataCompressor" byte_order="LittleEndian">
  <UnstructuredGrid>
    <FieldData>
      <DataArray type="Float64" Name="TIME" NumberOfTuples="1" format="ascii">
1e-08
      </DataArray>
    </FieldData>

    <Piece NumberOfPoints="160" NumberOfCells="20" >
      <Points>
        <DataArray type="Float64" NumberOfComponents="3" format="ascii">
-2.500000000000000e+00 1.000000000000000e+00 1.000000000000000e-01
-2.500000000000000e+00 1.000000000000000e+00 5.000000000000000e-02
-2.500000000000000e+00 2.000000000000000e+00 5.000000000000000e-02
-2.500000000000000e+00 2.000000000000000e+00 1.000000000000000e-01
-2.000000000000000e+00 1.000000000000000e+00 1.000000000000000e-01
-2.000000000000000e+00 1.000000000000000e+00 5.000000000000000e-02
-2.000000000000000e+00 2.000000000000000e+00 5.000000000000001e-02
-2.000000000000000e+00 2.000000000000000e+00 1.000000000000000e-01
-2.500000000000000e+00 1.000000000000000e+00 5.000000000000000e-02
-2.500000000000000e+00 1.000000000000000e+00 0.000000000000000e+00
-2.500000000000000e+00 2.000000000000000e+00 0.000000000000000e+00
-2.500000000000000e+00 2.000000000000000e+00 5.000000000000000e-02
-2.000000000000000e+00 1.000000000000000e+00 5.000000000000000e-02
-2.000000000000000e+00 1.000000000000000e+00 3.469446951953614e-18
-2.000000000000000e+00 2.000000000000000e+00 0.000000000000000e+00
-2.000000000000000e+00 2.000000000000000e+00 5.000000000000001e-02
-2.500000000000000e+00 1.000000000000000e+00 0.000000000000000e+00
-2.500000000000000e+00 1.000000000000000e+00 -5.000000000000002e-02
-2.500000000000000e+00 2.000000000000000e+00 -5.000000000000002e-02
-2.500000000000000e+00 2.000000000000000e+00 0.000000000000000e+00
-2.000000000000000e+00 1.000000000000000e+00 3.469446951953614e-18
-2.000000000000000e+00 1.000000000000000e+00 -5.000000000000001e-02
-2.000000000000000e+00 2.000000000000000e+00 -5.000000000000000e-02
-2.000000000000000e+00 2.000000000000000e+00 0.000000000000000e+00
-2.500000000000000e+00 1.000000000000000e+00 -5.000000000000002e-02
-2.500000000000000e+00 1.000000000000000e+00 -1.000000000000000e-01
-2.500000000000000e+00 2.000000000000000e+00 -1.000000000000000e-01
-2.500000000000000e+00 2.000000000000000e+00 -5.000000000000002e-02
-2.000000000000000e+00 1.000000000000000e+00 -5.000000000000001e-02
-2.000000000000000e+00 1.000000000000000e+00 -1.000000000000000e-01
-2.000000000000000e+00 2.000000000000000e+00 -1.000000000000000e-01
-2.000000000000000e+00 2.000000000000000e+00 -5.000000000000000e-02
-2.000000000000000e+00 1.000000000000000e+00 1.000000000000000e-01
-2.000000000000000e+00 1.000000000000000e+00 5.000000000000000e-02
-2.000000000000000e+00 2.000000000000000e+00 5.000000000000001e-02
-2.000000000000000e+00 2.000000000000000e+00 1.000000000000000e-01
-1.500000000000000e+00 1.000000000000000e+00 1.000000000000000e-01
-1.500000000000000e+00 1.000000000000000e+00 5.000000000000003e-02
-1.500000000000000e+00 2.000000000000000e+00 5.000000000000000e-02
-1.500000000000000e+00 2.000000000000000e+00 1.000000000000000e-01
-2.000000000000000e+00 1.000000000000000e+00 5.000000000000000e-02
-2.000000000000000e+00 1.000000000000000e+00 3.469446951953614e-18
-2.000000000000000e+00 2.000000000000000e+00 0.000000000000000e+00
-2.000000000000000e+00 2.000000000000000e+00 5.000000000000001e-02
-1.500000000000000e+00 1.000000000000000e+00 5.000000000000003e-02
-1.500000000000000e+00 1.000000000000000e+00 0.000000000000000e+00
-1.500000000000000e+00 2.000000000000000e+00 0.000000000000000e+00
-1.500000000000000e+00 2.000000000000000e+00 5.000000000000000e-02
-2.000000000000000e+00 1.000000000000000e+00 3.469446951953614e-18
-2.000000000000000e+00 1.000000000000000e+00 -5.000000000000001e-02
-2.000000000000000e+00 2.000000000000000e+00 -5.000000000000000e-02
-2.000000000000000e+00 2.000000000000000e+00 0.000000000000000e+00
-1.500000000000000e+00 1.000000000000000e+00 0.000000000000000e+00
-1.500000000000000e+00 1.000000000000000e+00 -5.000000000000002e-02
-1.500000000000000e+00 2.000000000000000e+00 -5.000000000000002e-02
-1.500000000000000e+00 2.000000000000000e+00 0.000000000000000e+00
-2.000000000000000e+00 1.000000000000000e+00 -5.000000000000001e-02
-2.000000000000000e+00 1.000000000000000e+00 -1.000000000000000e-01
-2.000000000000000e+00 2.000000000000000e+00 -1.000000000000000e-01
-2.000000000000000e+00 2.000000000000000e+00 -5.000000000000000e-02
-1.500000000000000e+00 1.000000000000000e+00 -5.000000000000002e-02
-1.500000000000000e+00 1.000000000000000e+00 -1.000000000000000e-01
-1.500000000000000e+00 2.000000000000000e+00 -1.000000000000000e-01
-1.500000000000000e+00 2.000000000000000e+00 -5.000000000000002e-02
-1.500000000000000e+00 1.000000000000000e+00 1.000000000000000e-01
-1.500000000000000e+00 1.000000000000000e+00 5.000000000000003e-02
-1.500000000000000e+00 2.000000000000000e+00 5.000000000000000e-02
-1.500000000000000e+00 2.000000000000000e+00 1.000000000000000e-01
-1.000000000000000e+00 1.000000000000000e+00 1.000000000000000e-01
-1.000000000000000e+00 1.000000000000000e+00 5.000000000000001e-02
-1.000000000000000e+00 2.000000000000000e+00 5.000000000000000e-02
-1.000000000000000e+00 2.000000000000000e+00 1.000000000000000e-01
-1.500000000000000e+00 1.000000000000000e+00 5.000000000000003e-02
-1.500000000000000e+00 1.000000000000000e+00 0.000000000000000e+00
-1.500000000000000e+00 2.000000000000000e+00 0.000000000000000e+00
-1.500000000000000e+00 2.000000000000000e+00 5.000000000000000e-02
-1.000000000000000e+00 1.000000000000000e+00 5.000000000000001e-02
-1.000000000000000e+00 1.000000000000000e+00 0.000000000000000e+00
-1.000000000000000e+00 2.000000000000000e+00 -6.938893903907228e-18
-1.000000000000000e+00 2.000000000000000e+00 5.000000000000000e-02
-1.500000000000000e+00 1.000000000000000e+00 0.000000000000000e+00
-1.500000000000000e+00 1.000000000000000e+00 -5.000000000000002e-02
-1.500000000000000e+00 2.000000000000000e+00 -5.000000000000002e-02
-1.500000000000000e+00 2.000000000000000e+00 0.000000000000000e+00
-1.000000000000000e+00 1.000000000000000e+00 0.000000000000000e+00
-1.000000000000000e+00 1.000000000000000e+00 -5.000000000000002e-02
-1.000000000000000e+00 2.000000000000000e+00 -5.000000000000002e-02
-1.000000000000000e+00 2.000000000000000e+00 -6.938893903907228e-18
-1.500000000000000e+00 1.000000000000000e+00 -5.000000000000002e-02
-1.500000000000000e+00 1.000000000000000e+00 -1.000000000000000e-01
-1.500000000000000e+00 2.000000000000000e+00 -1.000000000000000e-01
-1.500000000000000e+00 2.000000000000000e+00 -5.000000000000002e-02
-1.000000000000000e+00 1.000000000000000e+00 -5.000000000000002e-02
-1.000000000000000e+00 1.000000000000000e+00 -1.000000000000000e-01
-1.000000000000000e+00 2.000000000000000e+00 -1.000000000000000e-01
-1.000000000000000e+00 2.000000000000000e+00 -5.000000000000002e-02
-1.000000000000000e+00 1.000000000000000e+00 1.000000000000000e-01
-1.000000000000000e+00 1.000000000000000e+00 5.000000000000001e-02
-1.000000000000000e+00 2.000000000000000e+00 5.000000000000000e-02
-1.000000000000000e+00 2.000000000000000e+00 1.000000000000000e-01
-5.000000000000000e-01 1.000000000000000e+00 1.000000000000000e-01
-5.000000000000001e-01 1.000000000000000e+00 5.000000000000000e-02
-5.000000000000000e-01 2.000000000000000e+00 5.000000000000001e-02
-5.000000000000000e-01 2.000000000000000e+00 1.000000000000000e-01
-1.000000000000000e+00 1.000000000000000e+00 5.000000000000001e-02
-1.000000000000000e+00 1.000000000000000e+00 0.000000000000000e+00
-1.000000000000000e+00 2.000000000000000e+00 -6.938893903907228e-18
-1.000000000000000e+00 2.000000000000000e+00 5.000000000000000e-02
-5.000000000000001e-01 1.000000000000000e+00 5.000000000000000e-02
-5.000000000000000e-01 1.000000000000000e+00 0.000000000000000e+00
-5.000000000000000e-01 2.000000000000000e+00 0.000000000000000e+00
-5.000000000000000e-01 2.000000000000000e+00 5.000000000000001e-02
-1.000000000000000e+00 1.000000000000000e+00 0.000000000000000e+00
-1.000000000000000e+00 1.000000000000000e+00 -5.000000000000002e-02
-1.000000000000000e+00 2.000000000000000e+00 -5.000000000000002e-02
-1.000000000000000e+00 2.000000000000000e+00 -6.938893903907228e-18
-5.000000000000000e-01 1.000000000000000e+00 0.000000000000000e+00
-5.000000000000000e-01 1.000000000000000e+00 -5.000000000000001e-02
-5.000000000000002e-01 2.000000000000000e+00 -5.000000000000002e-02
-5.000000000000000e-01 2.000000000000000e+00 0.000000000000000e+00
-1.000000000000000e+00 1.000000000000000e+00 -5.000000000000002e-02
-1.000000000000000e+00 1.000000000000000e+00 -1.000000000000000e-01
-1.000000000000000e+00 2.000000000000000e+00 -1.000000000000000e-01
-1.000000000000000e+00 2.000000000000000e+00 -5.000000000000002e-02
-5.000000000000000e-01 1.000000000000000e+00 -5.000000000000001e-02
-5.000000000000000e-01 1.000000000000000e+00 -1.000000000000000e-01
-5.000000000000000e-01 2.000000000000000e+00 -1.000000000000000e-01
-5.000000000000002e-01 2.000000000000000e+00 -5.000000000000002e-02
-5.000000000000000e-01 1.000000000000000e+00 1.000000000000000e-01
-5.000000000000001e-01 1.000000000000000e+00 5.000000000000000e-02
-5.000000000000000e-01 2.000000000000000e+00 5.000000000000001e-02
-5.000000000000000e-01 2.000000000000000e+00 1.000000000000000e-01
0.000000000000000e+00 1.000000000000000e+00 1.000000000000000e-01
0.000000000000000e+00 1.000000000000000e+00 4.999999999999999e-02
0.000000000000000e+00 2.000000000000000e+00 4.999999999999999e-02
0.000000000000000e+00 2.000000000000000e+00 1.000000000000000e-01
-5.000000000000001e-01 1.000000000000000e+00 5.000000000000000e-02
-5.000000000000000e-01 1.000000000000000e+00 0.000000000000000e+00
-5.000000000000000e-01 2.000000000000000e+00 0.000000000000000e+00
-5.000000000000000e-01 2.000000000000000e+00 5.000000000000001e-02
0.000000000000000e+00 1.000000000000000e+00 4.999999999999999e-02
0.000000000000000e+00 1.000000000000000e+00 0.000000000000000e+00
0.000000000000000e+00 2.000000000000000e+00 0.000000000000000e+00
0.000000000000000e+00 2.000000000000000e+00 4.999999999999999e-02
-5.000000000000000e-01 1.000000000000000e+00 0.000000000000000e+00
-5.000000000000000e-01 1.000000000000000e+00 -5.000000000000001e-02
-5.000000000000002e-01 2.000000000000000e+00 -5.000000000000002e-02
-5.000000000000000e-01 2.000000000000000e+00 0.000000000000000e+00
0.000000000000000e+00 1.000000000000000e+00 0.000000000000000e+00
0.000000000000000e+00 1.000000000000000e+00 -5.000000000000002e-02
0.000000000000000e+00 2.000000000000000e+00 -5.000000000000002e-02
0.000000000000000e+00 2.000000000000000e+00 0.000000000000000e+00
-5.000000000000000e-01 1.000000000000000e+00 -5.000000000000001e-02
-5.000000000000000e-01 1.000000000000000e+00 -1.000000000000000e-01
-5.000000000000000e-01 2.000000000000000e+00 -1.000000000000000e-01
-5.000000000000002e-01 2.000000000000000e+00 -5.000000000000002e-02
0.000000000000000e+00 1.000000000000000e+00 -5.000000000000002e-02
0.000000000000000e+00 1.000000000000000e+00 -1.000000000000000e-01
0.000000000000000e+00 2.000000000000000e+00 -1.000000000000000e-01
0.000000000000000e+00 2.000000000000000e+00 -5.000000000000002e-02
        </DataArray>
      </Points>

      <Cells>
        <DataArray type="Int32" Name="connectivity" format="ascii">
0 1 2 3 4 5 6 7 8 9 10 11 12 13 14 15 16 17 18 19 20 21 22 23 24 25 26 27 28 29 30 31 32 33 34 35 36 37 38 39 40 41 42 43 44 45 46 47 48 49 50 51 52 53 54 55 56 57 58 59 60 61 62 63 64 65 66 67 68 69 70 71 72 73 74 75 76 77 78 79 80 81 82 83 84 85 86 87 88 89 90 91 92 93 94 95 96 97 98 99 100 101 102 103 104 105 106 107 108 109 110 111 112 113 114 115 116 117 118 119 120 121 122 123 124 125 126 127 128 129 130 131 132 133 134 135 136 137 138 139 140 141 142 143 144 145 146 147 148 149 150 151 152 153 154 155 156 157 158 159 
        </DataArray>
        <DataArray type="Int32" Name="offsets" format="ascii">
8 16 24 32 40 48 56 64 72 80 88 96 104 112 120 128 136 144 152 160 
        </DataArray>
        <DataArray type="UInt8" Name="types" format="ascii">
12 12 12 12 12 12 12 12 12 12 12 12 12 12 12 12 12 12 12 12 
        </DataArray>
      </Cells>

  <PointData>
        <DataArray type="Float64" Name="displacement" NumberOfComponents="3" format="ascii">
0.000000000000000e+00 0.000000000000000e+00 0.000000000000000e+00
0.000000000000000e+00 0.000000000000000e+00 0.000000000000000e+00
0.000000000000000e+00 0.000000000000000e+00 0.000000000000000e+00
0.000000000000000e+00 0.000000000000000e+00 0.000000000000000e+00
-9.381805085448702e-03 -1.265662350244156e-14 2.184146192573260e-02
-4.962092836961424e-03 -5.044618574138811e-15 2.200220716386404e-02
-4.962092836999015e-03 -5.329949222864443e-15 2.200220716400721e-02
-9.381805085508583e-03 -1.246322678009924e-14 2.184146192587402e-02
0.000000000000000e+00 0.000000000000000e+00 0.000000000000000e+00
0.000000000000000e+00 0.000000000000000e+00 0.000000000000000e+00
0.000000000000000e+00 0.000000000000000e+00 0.000000000000000e+00
0.000000000000000e+00 0.000000000000000e+00 0.000000000000000e+00
-4.962092836961424e-03 -5.044618574138811e-15 2.200220716386404e-02
-5.628144859205021e-04 2.120176013471410e-15 2.216622704339350e-02
-5.628144859376198e-04 2.549980906923777e-15 2.216622704353833e-02
-4.962092836999015e-03 -5.329949222864443e-15 2.200220716400721e-02
0.000000000000000e+00 0.000000000000000e+00 0.000000000000000e+00
0.000000000000000e+00 0.000000000000000e+00 0.000000000000000e+00
0.000000000000000e+00 0.000000000000000e+00 0.000000000000000e+00
0.000000000000000e+00 0.000000000000000e+00 0.000000000000000e+00
-5.628144859205021e-04 2.120176013471410e-15 2.216622704339350e-02
3.833365423276681e-03 9.925331817448420e-15 2.232996799828018e-02
3.833365423280210e-03 1.001327955312247e-14 2.232996799842659e-02
-5.628144859376198e-04 2.549980906923777e-15 2.216622704353833e-02
0.000000000000000e+00 0.000000000000000e+00 0.000000000000000e+00
0.000000000000000e+00 0.000000000000000e+00 0.000000000000000e+00
0.000000000000000e+00 0.000000000000000e+00 0.000000000000000e+00
0.000000000000000e+00 0.000000000000000e+00 0.000000000000000e+00
3.833365423276681e-03 9.925331817448420e-15 2.232996799828018e-02
8.241329102344087e-03 1.763059025485981e-14 2.248972079245215e-02
8.241329102370186e-03 1.721000693805489e-14 2.248972079260027e-02
3.833365423280210e-03 1.001327955312247e-14 2.232996799842659e-02
-9.381805085448702e-03 -1.265662350244156e-14 2.184146192573260e-02
-4.962092836961424e-03 -5.044618574138811e-15 2.200220716386404e-02
-4.962092836999015e-03 -5.329949222864443e-15 2.200220716400721e-02
-9.381805085508583e-03 -1.246322678009924e-14 2.184146192587402e-02
-2.122909035992158e-02 -3.761378913358062e-14 8.450076749333250e-02
-1.293269389895169e-02 -1.684057117990221e-14 8.516351848280272e-02
-1.293269389903436e-02 -1.697108002102106e-14 8.516351848320518e-02
-2.122909036003014e-02 -3.768607540627665e-14 8.450076749373074e-02
-4.962092836961424e-03 -5.044618574138811e-15 2.200220716386404e-02
-5.628144859205021e-04 2.120176013471410e-15 2.216622704339350e-02
-5.628144859376198e-04 2.549980906923777e-15 2.216622704353833e-02
-4.962092836999015e-03 -5.329949222864443e-15 2.200220716400721e-02
-1.293269389895169e-02 -1.684057117990221e-14 8.516351848280272e-02
-4.638396775999476e-03 3.497508345180987e-15 8.582804104065125e-02
-4.638396776057738e-03 3.376113367655854e-15 8.582804104105766e-02
-1.293269389903436e-02 -1.697108002102106e-14 8.516351848320518e-02
-5.628144859205021e-04 2.120176013471410e-15 2.216622704339350e-02
3.833365423276681e-03 9.925331817448420e-15 2.232996799828018e-02
3.833365423280210e-03 1.001327955312247e-14 2.232996799842659e-02
-5.628144859376198e-04 2.549980906923777e-15 2.216622704353833e-02
-4.638396775999476e-03 3.497508345180987e-15 8.582804104065125e-02
3.658442846302059e-03 2.374799624676037e-14 8.649303636635566e-02
3.658442846268555e-03 2.406830260465976e-14 8.649303636676603e-02
-4.638396776057738e-03 3.376113367655854e-15 8.582804104105766e-02
3.833365423276681e-03 9.925331817448420e-15 2.232996799828018e-02
8.241329102344087e-03 1.763059025485981e-14 2.248972079245215e-02
8.241329102370186e-03 1.721000693805489e-14 2.248972079260027e-02
3.833365423280210e-03 1.001327955312247e-14 2.232996799842659e-02
3.658442846302059e-03 2.374799624676037e-14 8.649303636635566e-02
1.196614637327906e-02 4.452703011420505e-14 8.715768677571811e-02
1.196614637327156e-02 4.445495326276803e-14 8.715768677613275e-02
3.658442846268555e-03 2.406830260465976e-14 8.649303636676603e-02
-2.122909035992158e-02 -3.761378913358062e-14 8.450076749333250e-02
-1.293269389895169e-02 -1.684057117990221e-14 8.516351848280272e-02
-1.293269389903436e-02 -1.697108002102106e-14 8.516351848320518e-02
-2.122909036003014e-02 -3.768607540627665e-14 8.450076749373074e-02
-3.768811839408345e-02 -7.352346347956003e-14 1.830233290821470e-01
-2.604222105035720e-02 -4.004813926131771e-14 1.843289185734921e-01
-2.604222105049224e-02 -3.954833594500808e-14 1.843289185741535e-01
-3.768811839424101e-02 -7.365478394471100e-14 1.830233290828035e-01
-1.293269389895169e-02 -1.684057117990221e-14 8.516351848280272e-02
-4.638396775999476e-03 3.497508345180987e-15 8.582804104065125e-02
-4.638396776057738e-03 3.376113367655854e-15 8.582804104105766e-02
-1.293269389903436e-02 -1.697108002102106e-14 8.516351848320518e-02
-2.604222105035720e-02 -4.004813926131771e-14 1.843289185734921e-01
-1.441593625630743e-02 -6.008538008878960e-15 1.856325415742184e-01
-1.441593625642137e-02 -5.943726790234333e-15 1.856325415748844e-01
-2.604222105049224e-02 -3.954833594500808e-14 1.843289185741535e-01
-4.638396775999476e-03 3.497508345180987e-15 8.582804104065125e-02
3.658442846302059e-03 2.374799624676037e-14 8.649303636635566e-02
3.658442846268555e-03 2.406830260465976e-14 8.649303636676603e-02
-4.638396776057738e-03 3.376113367655854e-15 8.582804104105766e-02
-1.441593625630743e-02 -6.008538008878960e-15 1.856325415742184e-01
-2.792733001012274e-03 2.751362355586699e-14 1.869354897962804e-01
-2.792733001105120e-03 2.739773817965062e-14 1.869354897969510e-01
-1.441593625642137e-02 -5.943726790234333e-15 1.856325415748844e-01
3.658442846302059e-03 2.374799624676037e-14 8.649303636635566e-02
1.196614637327906e-02 4.452703011420505e-14 8.715768677571811e-02
1.196614637327156e-02 4.445495326276803e-14 8.715768677613275e-02
3.658442846268555e-03 2.406830260465976e-14 8.649303636676603e-02
-2.792733001012274e-03 2.751362355586699e-14 1.869354897962804e-01
8.840508364286603e-03 6.140849106650594e-14 1.882383192891911e-01
8.840508364216352e-03 6.125764422818860e-14 1.882383192898667e-01
-2.792733001105120e-03 2.739773817965062e-14 1.869354897969510e-01
-3.768811839408345e-02 -7.352346347956003e-14 1.830233290821470e-01
-2.604222105035720e-02 -4.004813926131771e-14 1.843289185734921e-01
-2.604222105049224e-02 -3.954833594500808e-14 1.843289185741535e-01
-3.768811839424101e-02 -7.365478394471100e-14 1.830233290828035e-01
-5.961327435611064e-02 -1.204616583475450e-13 3.120091515220061e-01
-4.520326768737334e-02 -7.660513733361491e-14 3.139862077284237e-01
-4.520326768755763e-02 -7.611060222905383e-14 3.139862077292899e-01
-5.961327435631152e-02 -1.205170387445286e-13 3.120091515228678e-01
-2.604222105035720e-02 -4.004813926131771e-14 1.843289185734921e-01
-1.441593625630743e-02 -6.008538008878960e-15 1.856325415742184e-01
-1.441593625642137e-02 -5.943726790234333e-15 1.856325415748844e-01
-2.604222105049224e-02 -3.954833594500808e-14 1.843289185741535e-01
-4.520326768737334e-02 -7.660513733361491e-14 3.139862077284237e-01
-3.080017880487872e-02 -3.214667857762624e-14 3.159625281079688e-01
-3.080017880504732e-02 -3.231918227798652e-14 3.159625281088393e-01
-4.520326768755763e-02 -7.611060222905383e-14 3.139862077292899e-01
-1.441593625630743e-02 -6.008538008878960e-15 1.856325415742184e-01
-2.792733001012274e-03 2.751362355586699e-14 1.869354897962804e-01
-2.792733001105120e-03 2.739773817965062e-14 1.869354897969510e-01
-1.441593625642137e-02 -5.943726790234333e-15 1.856325415748844e-01
-3.080017880487872e-02 -3.214667857762624e-14 3.159625281079688e-01
-1.639859702269229e-02 1.194839975731917e-14 3.179384408489010e-01
-1.639859702284521e-02 1.209865148056017e-14 3.179384408497757e-01
-3.080017880504732e-02 -3.231918227798652e-14 3.159625281088393e-01
-2.792733001012274e-03 2.751362355586699e-14 1.869354897962804e-01
8.840508364286603e-03 6.140849106650594e-14 1.882383192891911e-01
8.840508364216352e-03 6.125764422818860e-14 1.882383192898667e-01
-2.792733001105120e-03 2.739773817965062e-14 1.869354897969510e-01
-1.639859702269229e-02 1.194839975731917e-14 3.179384408489010e-01
-1.990202038701726e-03 5.630037720879926e-14 3.199149747668696e-01
-1.990202038838158e-03 5.613891834220731e-14 3.199149747677488e-01
-1.639859702284521e-02 1.209865148056017e-14 3.179384408497757e-01
-5.961327435611064e-02 -1.204616583475450e-13 3.120091515220061e-01
-4.520326768737334e-02 -7.660513733361491e-14 3.139862077284237e-01
-4.520326768755763e-02 -7.611060222905383e-14 3.139862077292899e-01
-5.961327435631152e-02 -1.205170387445286e-13 3.120091515228678e-01
-8.704107044991392e-02 -1.802323663203283e-13 4.662420669317502e-01
-7.036334674943703e-02 -1.283910797215127e-13 4.688500943681671e-01
-7.036334674966366e-02 -1.281704419133698e-13 4.688500943691886e-01
-8.704107045015372e-02 -1.806943762018150e-13 4.662420669327678e-01
-4.520326768737334e-02 -7.660513733361491e-14 3.139862077284237e-01
-3.080017880487872e-02 -3.214667857762624e-14 3.159625281079688e-01
-3.080017880504732e-02 -3.231918227798652e-14 3.159625281088393e-01
-4.520326768755763e-02 -7.611060222905383e-14 3.139862077292899e-01
-7.036334674943703e-02 -1.283910797215127e-13 4.688500943681671e-01
-5.370185315397535e-02 -7.626039453867445e-14 4.714541251997070e-01
-5.370185315418960e-02 -7.621067167821237e-14 4.714541252007320e-01
-7.036334674966366e-02 -1.281704419133698e-13 4.688500943691886e-01
-3.080017880487872e-02 -3.214667857762624e-14 3.159625281079688e-01
-1.639859702269229e-02 1.194839975731917e-14 3.179384408489010e-01
-1.639859702284521e-02 1.209865148056017e-14 3.179384408497757e-01
-3.080017880504732e-02 -3.231918227798652e-14 3.159625281088393e-01
-5.370185315397535e-02 -7.626039453867445e-14 4.714541251997070e-01
-3.704355168131487e-02 -2.442168601291599e-14 4.740570389745072e-01
-3.704355168151678e-02 -2.416986818644841e-14 4.740570389755360e-01
-5.370185315418960e-02 -7.621067167821237e-14 4.714541252007320e-01
-1.639859702269229e-02 1.194839975731917e-14 3.179384408489010e-01
-1.990202038701726e-03 5.630037720879926e-14 3.199149747668696e-01
-1.990202038838158e-03 5.613891834220731e-14 3.199149747677488e-01
-1.639859702284521e-02 1.209865148056017e-14 3.179384408497757e-01
-3.704355168131487e-02 -2.442168601291599e-14 4.740570389745072e-01
-2.037750278107522e-02 2.797140215391274e-14 4.766610469186616e-01
-2.037750278126399e-02 2.776182336000447e-14 4.766610469196943e-01
-3.704355168151678e-02 -2.416986818644841e-14 4.740570389755360e-01
        </DataArray>
        <DataArray type="Float64" Name="nodal_2PK_stresses_xyz" NumberOfComponents="6" format="ascii">
-1.763999461792908e-01 -8.693187302146960e-15 -6.519898463678941e-03 -2.304081579757418e-13 2.973778466280829e-15 6.798100711016283e-05
-8.913236744435912e-02 6.739617836802608e-16 -6.490041320302266e-03 -1.296034741854934e-13 -2.805519581894669e-15 1.391118194927378e-03
-8.913236744495592e-02 -3.687219887978520e-15 -6.490041320370981e-03 -1.307510073765079e-13 -1.399389882300722e-15 1.391118196362090e-03
-1.763999461804002e-01 3.033185711008723e-15 -6.519898463734689e-03 -2.317274471321477e-13 -1.475097792291206e-14 6.798100852612170e-05
-1.660328262255762e-01 5.021890331285036e-15 1.163612214291486e-03 -3.880105410304679e-13 -3.300318318695547e-14 9.819616084571138e-04
-8.376896235758925e-02 -4.429593398614107e-15 6.601851270678828e-04 -1.832198485558516e-13 -2.297294031032428e-14 1.312960850649440e-03
-8.376896235801334e-02 -3.931594913370332e-15 6.601851270683132e-04 -1.763953069686189e-13 -2.687061626469214e-14 1.312960850559921e-03
-1.660328262262977e-01 -2.747001048028492e-15 1.163612214299838e-03 -3.917902669053736e-13 1.972980754560368e-14 9.819616082636195e-04
-8.913236744435912e-02 6.739617836802608e-16 -6.490041320302266e-03 -1.296034741854934e-13 -2.805519581894669e-15 1.391118194927378e-03
-1.487678357746786e-03 -2.153369218826279e-15 -6.455626904192017e-03 -5.628364810571018e-15 -2.390356840695591e-16 1.659625812095057e-03
-1.487678357975238e-03 2.173296825536738e-15 -6.455626904252881e-03 -2.262648989173951e-15 8.410598983446519e-15 1.659625813539121e-03
-8.913236744495592e-02 -3.687219887978520e-15 -6.490041320370981e-03 -1.307510073765079e-13 -1.399389882300722e-15 1.391118196362090e-03
-8.376896235758925e-02 -4.429593398614107e-15 6.601851270678828e-04 -1.832198485558516e-13 -2.297294031032428e-14 1.312960850649440e-03
-8.310328190165762e-04 3.860871077799975e-15 1.558581725937079e-04 -4.582521347928174e-15 -2.708001384360434e-14 1.750454802004927e-03
-8.310328191789974e-04 3.603242928354144e-15 1.558581725997273e-04 -9.240463482063823e-16 -5.341228422619079e-14 1.750454801981964e-03
-8.376896235801334e-02 -3.931594913370332e-15 6.601851270683132e-04 -1.763953069686189e-13 -2.687061626469214e-14 1.312960850559921e-03
-1.487678357746786e-03 -2.153369218826279e-15 -6.455626904192017e-03 -5.628364810571018e-15 -2.390356840695591e-16 1.659625812095057e-03
8.686907023492668e-02 -3.828667559119244e-15 -6.468145607590229e-03 1.309019974536961e-13 3.159632905804146e-15 1.134399215110664e-03
8.686907023511550e-02 -3.605555036969185e-15 -6.468145607660798e-03 1.292604142776064e-13 -1.715041634743187e-16 1.134399216625847e-03
-1.487678357975238e-03 2.173296825536738e-15 -6.455626904252881e-03 -2.262648989173951e-15 8.410598983446519e-15 1.659625813539121e-03
-8.310328190165762e-04 3.860871077799975e-15 1.558581725937079e-04 -4.582521347928174e-15 -2.708001384360434e-14 1.750454802004927e-03
8.282883433866096e-02 4.827334322669371e-15 6.479847171621207e-04 1.803784507591519e-13 -2.918546148418175e-14 1.243492251165499e-03
8.282883433871996e-02 2.728408337849317e-15 6.479847171705181e-04 1.839770845537888e-13 -1.396446329692411e-14 1.243492251038608e-03
-8.310328191789974e-04 3.603242928354144e-15 1.558581725997273e-04 -9.240463482063823e-16 -5.341228422619079e-14 1.750454801981964e-03
8.686907023492668e-02 -3.828667559119244e-15 -6.468145607590229e-03 1.309019974536961e-13 3.159632905804146e-15 1.134399215110664e-03
1.762358707649339e-01 2.964154456417185e-15 -6.485221583738806e-03 2.258627059793814e-13 -1.569035495262565e-15 1.656067514708695e-03
1.762358707656544e-01 3.479410755308849e-15 -6.485221583791069e-03 2.227547006318168e-13 -5.765797504209529e-15 1.656067516104478e-03
8.686907023511550e-02 -3.605555036969185e-15 -6.468145607660798e-03 1.292604142776064e-13 -1.715041634743187e-16 1.134399216625847e-03
8.282883433866096e-02 4.827334322669371e-15 6.479847171621207e-04 1.803784507591519e-13 -2.918546148418175e-14 1.243492251165499e-03
1.672985374855219e-01 -4.794057750646053e-16 1.141011128976099e-03 3.941679312467194e-13 -2.028788783021886e-14 6.407682136477821e-04
1.672985374858529e-01 1.718442874412678e-15 1.141011128985511e-03 3.883254435034870e-13 7.207503635693999e-15 6.407682135082117e-04
8.282883433871996e-02 2.728408337849317e-15 6.479847171705181e-04 1.839770845537888e-13 -1.396446329692411e-14 1.243492251038608e-03
-1.660328262255762e-01 5.021890331285036e-15 1.163612214291486e-03 -3.880105410304679e-13 -3.300318318695547e-14 9.819616084571138e-04
-8.376896235758925e-02 -4.429593398614107e-15 6.601851270678828e-04 -1.832198485558516e-13 -2.297294031032428e-14 1.312960850649440e-03
-8.376896235801334e-02 -3.931594913370332e-15 6.601851270683132e-04 -1.763953069686189e-13 -2.687061626469214e-14 1.312960850559921e-03
-1.660328262262977e-01 -2.747001048028492e-15 1.163612214299838e-03 -3.917902669053736e-13 1.972980754560368e-14 9.819616082636195e-04
-1.426665733482285e-01 -4.217779576350556e-15 1.503153702443330e-03 -4.983278945233029e-13 -4.117193723320324e-14 1.171781446826620e-03
-7.026097320059427e-02 2.849260954013945e-15 1.291920611646317e-03 -2.401533847237616e-13 -1.309383697579036e-14 1.494876055663264e-03
-7.026097320072006e-02 3.274223495072297e-15 1.291920611678265e-03 -2.368910981121673e-13 -4.649880694099049e-15 1.494876055745785e-03
-1.426665733483313e-01 -1.239037099348082e-15 1.503153702458450e-03 -4.963343280659647e-13 -3.651840277338860e-14 1.171781446896658e-03
-8.376896235758925e-02 -4.429593398614107e-15 6.601851270678828e-04 -1.832198485558516e-13 -2.297294031032428e-14 1.312960850649440e-03
-8.310328190165762e-04 3.860871077799975e-15 1.558581725937079e-04 -4.582521347928174e-15 -2.708001384360434e-14 1.750454802004927e-03
-8.310328191789974e-04 3.603242928354144e-15 1.558581725997273e-04 -9.240463482063823e-16 -5.341228422619079e-14 1.750454801981964e-03
-8.376896235801334e-02 -3.931594913370332e-15 6.601851270683132e-04 -1.763953069686189e-13 -2.687061626469214e-14 1.312960850559921e-03
-7.026097320059427e-02 2.849260954013945e-15 1.291920611646317e-03 -2.401533847237616e-13 -1.309383697579036e-14 1.494876055663264e-03
2.683645715457371e-03 -1.673343916125322e-16 1.075737603180181e-03 6.293026047089307e-15 1.550940712457633e-14 1.880285464966712e-03
2.683645715340453e-03 -3.292148756985853e-15 1.075737603211245e-03 1.041679558448198e-14 1.651432552236877e-14 1.880285465136122e-03
-7.026097320072006e-02 3.274223495072297e-15 1.291920611678265e-03 -2.368910981121673e-13 -4.649880694099049e-15 1.494876055745785e-03
-8.310328190165762e-04 3.860871077799975e-15 1.558581725937079e-04 -4.582521347928174e-15 -2.708001384360434e-14 1.750454802004927e-03
8.282883433866096e-02 4.827334322669371e-15 6.479847171621207e-04 1.803784507591519e-13 -2.918546148418175e-14 1.243492251165499e-03