<?xml version="1.0" ?> 
<!-- 
# vtk DataFile Version 3.0
-->
<VTKFile type="UnstructuredGrid" version="0.1" compressor="vtkZLibDataCompressor" byte_order="LittleEndian">
  <UnstructuredGrid>
    <FieldData>
      <DataArray type="Float64" Name="TIME" NumberOfTuples="1" format="ascii">
0
      </DataArray>
    </FieldData>

    <Piece NumberOfPoints="160" NumberOfCells="20" >
      <Points>
        <DataArray type="Float64" NumberOfComponents="3" format="ascii">
-2.500000000000000e+00 1.000000000000000e+00 1.000000000000000e-01
-2.500000000000000e+00 1.000000000000000e+00 5.000000000000000e-02
-2.500000000000000e+00 2.000000000000000e+00 5.000000000000000e-02
-2.500000000000000e+00 2.000000000000000e+00 1.000000000000000e-01
-2.000000000000000e+00 1.000000000000000e+00 1.000000000000000e-01
-2.000000000000000e+00 1.000000000000000e+00 5.000000000000000e-02
-2.000000000000000e+00 2.000000000000000e+00 5.000000000000001e-02
-2.000000000000000e+00 2.000000000000000e+00 1.000000000000000e-01
-2.500000000000000e+00 1.000000000000000e+00 5.000000000000000e-02
-2.500000000000000e+00 1.000000000000000e+00 0.000000000000000e+00
-2.500000000000000e+00 2.000000000000000e+00 0.000000000000000e+00
-2.500000000000000e+00 2.000000000000000e+00 5.000000000000000e-02
-2.000000000000000e+00 1.000000000000000e+00 5.000000000000000e-02
-2.000000000000000e+00 1.000000000000000e+00 3.469446951953614e-18
-2.000000000000000e+00 2.000000000000000e+00 0.000000000000000e+00
-2.000000000000000e+00 2.000000000000000e+00 5.000000000000001e-02
-2.500000000000000e+00 1.000000000000000e+00 0.000000000000000e+00
-2.500000000000000e+00 1.000000000000000e+00 -5.000000000000002e-02
-2.500000000000000e+00 2.000000000000000e+00 -5.000000000000002e-02
-2.500000000000000e+00 2.000000000000000e+00 0.000000000000000e+00
-2.000000000000000e+00 1.000000000000000e+00 3.469446951953614e-18
-2.000000000000000e+00 1.000000000000000e+00 -5.000000000000001e-02
-2.000000000000000e+00 2.000000000000000e+00 -5.000000000000000e-02
-2.000000000000000e+00 2.000000000000000e+00 0.000000000000000e+00
-2.500000000000000e+00 1.000000000000000e+00 -5.000000000000002e-02
-2.500000000000000e+00 1.000000000000000e+00 -1.000000000000000e-01
-2.500000000000000e+00 2.000000000000000e+00 -1.000000000000000e-01
-2.500000000000000e+00 2.000000000000000e+00 -5.000000000000002e-02
-2.000000000000000e+00 1.000000000000000e+00 -5.000000000000001e-02
-2.000000000000000e+00 1.000000000000000e+00 -1.000000000000000e-01
-2.000000000000000e+00 2.000000000000000e+00 -1.000000000000000e-01
-2.000000000000000e+00 2.000000000000000e+00 -5.000000000000000e-02
-2.000000000000000e+00 1.000000000000000e+00 1.000000000000000e-01
-2.000000000000000e+00 1.000000000000000e+00 5.000000000000000e-02
-2.000000000000000e+00 2.000000000000000e+00 5.000000000000001e-02
-2.000000000000000e+00 2.000000000000000e+00 1.000000000000000e-01
-1.500000000000000e+00 1.000000000000000e+00 1.000000000000000e-01
-1.500000000000000e+00 1.000000000000000e+00 5.000000000000003e-02
-1.500000000000000e+00 2.000000000000000e+00 5.000000000000000e-02
-1.500000000000000e+00 2.000000000000000e+00 1.000000000000000e-01
-2.000000000000000e+00 1.000000000000000e+00 5.000000000000000e-02
-2.000000000000000e+00 1.000000000000000e+00 3.469446951953614e-18
-2.000000000000000e+00 2.000000000000000e+00 0.000000000000000e+00
-2.000000000000000e+00 2.000000000000000e+00 5.000000000000001e-02
-1.500000000000000e+00 1.000000000000000e+00 5.000000000000003e-02
-1.500000000000000e+00 1.000000000000000e+00 0.000000000000000e+00
-1.500000000000000e+00 2.000000000000000e+00 0.000000000000000e+00
-1.500000000000000e+00 2.000000000000000e+00 5.000000000000000e-02
-2.000000000000000e+00 1.000000000000000e+00 3.469446951953614e-18
-2.000000000000000e+00 1.000000000000000e+00 -5.000000000000001e-02
-2.000000000000000e+00 2.000000000000000e+00 -5.000000000000000e-02
-2.000000000000000e+00 2.000000000000000e+00 0.000000000000000e+00
-1.500000000000000e+00 1.000000000000000e+00 0.000000000000000e+00
-1.500000000000000e+00 1.000000000000000e+00 -5.000000000000002e-02
-1.500000000000000e+00 2.000000000000000e+00 -5.000000000000002e-02
-1.500000000000000e+00 2.000000000000000e+00 0.000000000000000e+00
-2.000000000000000e+00 1.000000000000000e+00 -5.000000000000001e-02
-2.000000000000000e+00 1.000000000000000e+00 -1.000000000000000e-01
-2.000000000000000e+00 2.000000000000000e+00 -1.000000000000000e-01
-2.000000000000000e+00 2.000000000000000e+00 -5.000000000000000e-02
-1.500000000000000e+00 1.000000000000000e+00 -5.000000000000002e-02
-1.500000000000000e+00 1.000000000000000e+00 -1.000000000000000e-01
-1.500000000000000e+00 2.000000000000000e+00 -1.000000000000000e-01
-1.500000000000000e+00 2.000000000000000e+00 -5.000000000000002e-02
-1.500000000000000e+00 1.000000000000000e+00 1.000000000000000e-01
-1.500000000000000e+00 1.000000000000000e+00 5.000000000000003e-02
-1.500000000000000e+00 2.000000000000000e+00 5.000000000000000e-02
-1.500000000000000e+00 2.000000000000000e+00 1.000000000000000e-01
-1.000000000000000e+00 1.000000000000000e+00 1.000000000000000e-01
-1.000000000000000e+00 1.000000000000000e+00 5.000000000000001e-02
-1.000000000000000e+00 2.000000000000000e+00 5.000000000000000e-02
-1.000000000000000e+00 2.000000000000000e+00 1.000000000000000e-01
-1.500000000000000e+00 1.000000000000000e+00 5.000000000000003e-02
-1.500000000000000e+00 1.000000000000000e+00 0.000000000000000e+00
-1.500000000000000e+00 2.000000000000000e+00 0.000000000000000e+00
-1.500000000000000e+00 2.000000000000000e+00 5.000000000000000e-02
-1.000000000000000e+00 1.000000000000000e+00 5.000000000000001e-02
-1.000000000000000e+00 1.000000000000000e+00 0.000000000000000e+00
-1.000000000000000e+00 2.000000000000000e+00 -6.938893903907228e-18
-1.000000000000000e+00 2.000000000000000e+00 5.000000000000000e-02
-1.500000000000000e+00 1.000000000000000e+00 0.000000000000000e+00
-1.500000000000000e+00 1.000000000000000e+00 -5.000000000000002e-02
-1.500000000000000e+00 2.000000000000000e+00 -5.000000000000002e-02
-1.500000000000000e+00 2.000000000000000e+00 0.000000000000000e+00
-1.000000000000000e+00 1.000000000000000e+00 0.000000000000000e+00
-1.000000000000000e+00 1.000000000000000e+00 -5.000000000000002e-02
-1.000000000000000e+00 2.000000000000000e+00 -5.000000000000002e-02
-1.000000000000000e+00 2.000000000000000e+00 -6.938893903907228e-18
-1.500000000000000e+00 1.000000000000000e+00 -5.000000000000002e-02
-1.500000000000000e+00 1.000000000000000e+00 -1.000000000000000e-01
-1.500000000000000e+00 2.000000000000000e+00 -1.000000000000000e-01
-1.500000000000000e+00 2.000000000000000e+00 -5.000000000000002e-02
-1.000000000000000e+00 1.000000000000000e+00 -5.000000000000002e-02
-1.000000000000000e+00 1.000000000000000e+00 -1.000000000000000e-01
-1.000000000000000e+00 2.000000000000000e+00 -1.000000000000000e-01
-1.000000000000000e+00 2.000000000000000e+00 -5.000000000000002e-02
-1.000000000000000e+00 1.000000000000000e+00 1.000000000000000e-01
-1.000000000000000e+00 1.000000000000000e+00 5.000000000000001e-02
-1.000000000000000e+00 2.000000000000000e+00 5.000000000000000e-02
-1.000000000000000e+00 2.000000000000000e+00 1.000000000000000e-01
-5.000000000000000e-01 1.000000000000000e+00 1.000000000000000e-01
-5.000000000000001e-01 1.000000000000000e+00 5.000000000000000e-02
-5.000000000000000e-01 2.000000000000000e+00 5.000000000000001e-02
-5.000000000000000e-01 2.000000000000000e+00 1.000000000000000e-01
-1.000000000000000e+00 1.000000000000000e+00 5.000000000000001e-02
-1.000000000000000e+00 1.000000000000000e+00 0.000000000000000e+00
-1.000000000000000e+00 2.000000000000000e+00 -6.938893903907228e-18
-1.000000000000000e+00 2.000000000000000e+00 5.000000000000000e-02
-5.000000000000001e-01 1.000000000000000e+00 5.000000000000000e-02
-5.000000000000000e-01 1.000000000000000e+00 0.000000000000000e+00
-5.000000000000000e-01 2.000000000000000e+00 0.000000000000000e+00
-5.000000000000000e-01 2.000000000000000e+00 5.000000000000001e-02
-1.000000000000000e+00 1.000000000000000e+00 0.000000000000000e+00
-1.000000000000000e+00 1.000000000000000e+00 -5.000000000000002e-02
-1.000000000000000e+00 2.000000000000000e+00 -5.000000000000002e-02
-1.000000000000000e+00 2.000000000000000e+00 -6.938893903907228e-18
-5.000000000000000e-01 1.000000000000000e+00 0.000000000000000e+00
-5.000000000000000e-01 1.000000000000000e+00 -5.000000000000001e-02
-5.000000000000002e-01 2.000000000000000e+00 -5.000000000000002e-02
-5.000000000000000e-01 2.000000000000000e+00 0.000000000000000e+00
-1.000000000000000e+00 1.000000000000000e+00 -5.000000000000002e-02
-1.000000000000000e+00 1.000000000000000e+00 -1.000000000000000e-01
-1.000000000000000e+00 2.000000000000000e+00 -1.000000000000000e-01
-1.000000000000000e+00 2.000000000000000e+00 -5.000000000000002e-02
-5.000000000000000e-01 1.000000000000000e+00 -5.000000000000001e-02
-5.000000000000000e-01 1.000000000000000e+00 -1.000000000000000e-01
-5.000000000000000e-01 2.000000000000000e+00 -1.000000000000000e-01
-5.000000000000002e-01 2.000000000000000e+00 -5.000000000000002e-02
-5.000000000000000e-01 1.000000000000000e+00 1.000000000000000e-01
-5.000000000000001e-01 1.000000000000000e+00 5.000000000000000e-02
-5.000000000000000e-01 2.000000000000000e+00 5.000000000000001e-02
-5.000000000000000e-01 2.000000000000000e+00 1.000000000000000e-01
0.000000000000000e+00 1.000000000000000e+00 1.000000000000000e-01
0.000000000000000e+00 1.000000000000000e+00 4.999999999999999e-02
0.000000000000000e+00 2.000000000000000e+00 4.999999999999999e-02
0.000000000000000e+00 2.000000000000000e+00 1.000000000000000e-01
-5.000000000000001e-01 1.000000000000000e+00 5.000000000000000e-02
-5.000000000000000e-01 1.000000000000000e+00 0.000000000000000e+00
-5.000000000000000e-01 2.000000000000000e+00 0.000000000000000e+00
-5.000000000000000e-01 2.000000000000000e+00 5.000000000000001e-02
0.000000000000000e+00 1.000000000000000e+00 4.999999999999999e-02
0.000000000000000e+00 1.000000000000000e+00 0.000000000000000e+00
0.000000000000000e+00 2.000000000000000e+00 0.000000000000000e+00
0.000000000000000e+00 2.000000000000000e+00 4.999999999999999e-02
-5.000000000000000e-01 1.000000000000000e+00 0.000000000000000e+00
-5.000000000000000e-01 1.000000000000000e+00 -5.000000000000001e-02
-5.000000000000002e-01 2.000000000000000e+00 -5.000000000000002e-02
-5.000000000000000e-01 2.000000000000000e+00 0.000000000000000e+00
0.000000000000000e+00 1.000000000000000e+00 0.000000000000000e+00
0.000000000000000e+00 1.000000000000000e+00 -5.000000000000002e-02
0.000000000000000e+00 2.000000000000000e+00 -5.000000000000002e-02
0.000000000000000e+00 2.000000000000000e+00 0.000000000000000e+00
-5.000000000000000e-01 1.000000000000000e+00 -5.000000000000001e-02
-5.000000000000000e-01 1.000000000000000e+00 -1.000000000000000e-01
-5.000000000000000e-01 2.000000000000000e+00 -1.000000000000000e-01
-5.000000000000002e-01 2.000000000000000e+00 -5.000000000000002e-02
0.000000000000000e+00 1.000000000000000e+00 -5.000000000000002e-02
0.000000000000000e+00 1.000000000000000e+00 -1.000000000000000e-01
0.000000000000000e+00 2.000000000000000e+00 -1.000000000000000e-01
0.000000000000000e+00 2.000000000000000e+00 -5.000000000000002e-02
        </DataArray>
      </Points>

      <Cells>
        <DataArray type="Int32" Name="connectivity" format="ascii">
0 1 2 3 4 5 6 7 8 9 10 11 12 13 14 15 16 17 18 19 20 21 22 23 24 25 26 27 28 29 30 31 32 33 34 35 36 37 38 39 40 41 42 43 44 45 46 47 48 49 50 51 52 53 54 55 56 57 58 59 60 61 62 63 64 65 66 67 68 69 70 71 72 73 74 75 76 77 78 79 80 81 82 83 84 85 86 87 88 89 90 91 92 93 94 95 96 97 98 99 100 101 102 103 104 105 106 107 108 109 110 111 112 113 114 115 116 117 118 119 120 121 122 123 124 125 126 127 128 129 130 131 132 133 134 135 136 137 138 139 140 141 142 143 144 145 146 147 148 149 150 151 152 153 154 155 156 157 158 159 
        </DataArray>
        <DataArray type="Int32" Name="offsets" format="ascii">
8 16 24 32 40 48 56 64 72 80 88 96 104 112 120 128 136 144 152 160 
        </DataArray>
        <DataArray type="UInt8" Name="types" format="ascii">
12 12 12 12 12 12 12 12 12 12 12 12 12 12 12 12 12 12 12 12 
        </DataArray>
      </Cells>

  <PointData>
        <DataArray type="Float64" Name="displacement" NumberOfComponents="3" format="ascii">
0.000000000000000e+00 0.000000000000000e+00 0.000000000000000e+00
0.000000000000000e+00 0.000000000000000e+00 0.000000000000000e+00
0.000000000000000e+00 0.000000000000000e+00 0.000000000000000e+00
0.000000000000000e+00 0.000000000000000e+00 0.000000000000000e+00
0.000000000000000e+00 0.000000000000000e+00 0.000000000000000e+00
0.000000000000000e+00 0.000000000000000e+00 0.000000000000000e+00
0.000000000000000e+00 0.000000000000000e+00 0.000000000000000e+00
0.000000000000000e+00 0.000000000000000e+00 0.000000000000000e+00
0.000000000000000e+00 0.000000000000000e+00 0.000000000000000e+00
0.000000000000000e+00 0.000000000000000e+00 0.000000000000000e+00
0.000000000000000e+00 0.000000000000000e+00 0.000000000000000e+00
0.000000000000000e+00 0.000000000000000e+00 0.000000000000000e+00
0.000000000000000e+00 0.000000000000000e+00 0.000000000000000e+00
0.000000000000000e+00 0.000000000000000e+00 0.000000000000000e+00
0.000000000000000e+00 0.000000000000000e+00 0.000000000000000e+00
0.000000000000000e+00 0.000000000000000e+00 0.000000000000000e+00
0.000000000000000e+00 0.000000000000000e+00 0.000000000000000e+00
0.000000000000000e+00 0.000000000000000e+00 0.000000000000000e+00
0.000000000000000e+00 0.000000000000000e+00 0.000000000000000e+00
0.000000000000000e+00 0.000000000000000e+00 0.000000000000000e+00
0.000000000000000e+00 0.000000000000000e+00 0.000000000000000e+00
0.000000000000000e+00 0.000000000000000e+00 0.000000000000000e+00
0.000000000000000e+00 0.000000000000000e+00 0.000000000000000e+00
0.000000000000000e+00 0.000000000000000e+00 0.000000000000000e+00
0.000000000000000e+00 0.000000000000000e+00 0.000000000000000e+00
0.000000000000000e+00 0.000000000000000e+00 0.000000000000000e+00
0.000000000000000e+00 0.000000000000000e+00 0.000000000000000e+00
0.000000000000000e+00 0.000000000000000e+00 0.000000000000000e+00
0.000000000000000e+00 0.000000000000000e+00 0.000000000000000e+00
0.000000000000000e+00 0.000000000000000e+00 0.000000000000000e+00
0.000000000000000e+00 0.000000000000000e+00 0.000000000000000e+00
0.000000000000000e+00 0.000000000000000e+00 0.000000000000000e+00
0.000000000000000e+00 0.000000000000000e+00 0.000000000000000e+00
0.000000000000000e+00 0.000000000000000e+00 0.000000000000000e+00
0.000000000000000e+00 0.000000000000000e+00 0.000000000000000e+00
0.000000000000000e+00 0.000000000000000e+00 0.000000000000000e+00
0.000000000000000e+00 0.000000000000000e+00 0.000000000000000e+00
0.000000000000000e+00 0.000000000000000e+00 0.000000000000000e+00
0.000000000000000e+00 0.000000000000000e+00 0.000000000000000e+00
0.000000000000000e+00 0.000000000000000e+00 0.000000000000000e+00
0.000000000000000e+00 0.000000000000000e+00 0.000000000000000e+00
0.000000000000000e+00 0.000000000000000e+00 0.000000000000000e+00
0.000000000000000e+00 0.000000000000000e+00 0.000000000000000e+00
0.000000000000000e+00 0.000000000000000e+00 0.000000000000000e+00
0.000000000000000e+00 0.000000000000000e+00 0.000000000000000e+00
0.000000000000000e+00 0.000000000000000e+00 0.000000000000000e+00
0.000000000000000e+00 0.000000000000000e+00 0.000000000000000e+00
0.000000000000000e+00 0.000000000000000e+00 0.000000000000000e+00
0.000000000000000e+00 0.000000000000000e+00 0.000000000000000e+00
0.000000000000000e+00 0.000000000000000e+00 0.000000000000000e+00
0.000000000000000e+00 0.000000000000000e+00 0.000000000000000e+00
0.000000000000000e+00 0.000000000000000e+00 0.000000000000000e+00
0.000000000000000e+00 0.000000000000000e+00 0.000000000000000e+00
0.000000000000000e+00 0.000000000000000e+00 0.000000000000000e+00
0.000000000000000e+00 0.000000000000000e+00 0.000000000000000e+00
0.000000000000000e+00 0.000000000000000e+00 0.000000000000000e+00
0.000000000000000e+00 0.000000000000000e+00 0.000000000000000e+00
0.000000000000000e+00 0.000000000000000e+00 0.000000000000000e+00
0.000000000000000e+00 0.000000000000000e+00 0.000000000000000e+00
0.000000000000000e+00 0.000000000000000e+00 0.000000000000000e+00
0.000000000000000e+00 0.000000000000000e+00 0.000000000000000e+00
0.000000000000000e+00 0.000000000000000e+00 0.000000000000000e+00
0.000000000000000e+00 0.000000000000000e+00 0.000000000000000e+00
0.000000000000000e+00 0.000000000000000e+00 0.000000000000000e+00
0.000000000000000e+00 0.000000000000000e+00 0.000000000000000e+00
0.000000000000000e+00 0.000000000000000e+00 0.000000000000000e+00
0.000000000000000e+00 0.000000000000000e+00 0.000000000000000e+00
0.000000000000000e+00 0.000000000000000e+00 0.000000000000000e+00
0.000000000000000e+00 0.000000000000000e+00 0.000000000000000e+00
0.000000000000000e+00 0.000000000000000e+00 0.000000000000000e+00
0.000000000000000e+00 0.000000000000000e+00 0.000000000000000e+00
0.000000000000000e+00 0.000000000000000e+00 0.000000000000000e+00
0.000000000000000e+00 0.000000000000000e+00 0.000000000000000e+00
0.000000000000000e+00 0.000000000000000e+00 0.000000000000000e+00
0.000000000000000e+00 0.000000000000000e+00 0.000000000000000e+00
0.000000000000000e+00 0.000000000000000e+00 0.000000000000000e+00
0.000000000000000e+00 0.000000000000000e+00 0.000000000000000e+00
0.000000000000000e+00 0.000000000000000e+00 0.000000000000000e+00
0.000000000000000e+00 0.000000000000000e+00 0.000000000000000e+00
0.000000000000000e+00 0.000000000000000e+00 0.000000000000000e+00
0.000000000000000e+00 0.000000000000000e+00 0.000000000000000e+00
0.000000000000000e+00 0.000000000000000e+00 0.000000000000000e+00
0.000000000000000e+00 0.000000000000000e+00 0.000000000000000e+00
0.000000000000000e+00 0.000000000000000e+00 0.000000000000000e+00
0.000000000000000e+00 0.000000000000000e+00 0.000000000000000e+00
0.000000000000000e+00 0.000000000000000e+00 0.000000000000000e+00
0.000000000000000e+00 0.000000000000000e+00 0.000000000000000e+00
0.000000000000000e+00 0.000000000000000e+00 0.000000000000000e+00
0.000000000000000e+00 0.000000000000000e+00 0.000000000000000e+00
0.000000000000000e+00 0.000000000000000e+00 0.000000000000000e+00
0.000000000000000e+00 0.000000000000000e+00 0.000000000000000e+00
0.000000000000000e+00 0.000000000000000e+00 0.000000000000000e+00
0.000000000000000e+00 0.000000000000000e+00 0.000000000000000e+00
0.000000000000000e+00 0.000000000000000e+00 0.000000000000000e+00
0.000000000000000e+00 0.000000000000000e+00 0.000000000000000e+00
0.000000000000000e+00 0.000000000000000e+00 0.000000000000000e+00
0.000000000000000e+00 0.000000000000000e+00 0.000000000000000e+00
0.000000000000000e+00 0.000000000000000e+00 0.000000000000000e+00
0.000000000000000e+00 0.000000000000000e+00 0.000000000000000e+00
0.000000000000000e+00 0.000000000000000e+00 0.000000000000000e+00
0.000000000000000e+00 0.000000000000000e+00 0.000000000000000e+00
0.000000000000000e+00 0.000000000000000e+00 0.000000000000000e+00
0.000000000000000e+00 0.000000000000000e+00 0.000000000000000e+00
0.000000000000000e+00 0.000000000000000e+00 0.000000000000000e+00
0.000000000000000e+00 0.000000000000000e+00 0.000000000000000e+00
0.000000000000000e+00 0.000000000000000e+00 0.000000000000000e+00
0.000000000000000e+00 0.000000000000000e+00 0.000000000000000e+00
0.000000000000000e+00 0.000000000000000e+00 0.000000000000000e+00
0.000000000000000e+00 0.000000000000000e+00 0.000000000000000e+00
0.000000000000000e+00 0.000000000000000e+00 0.000000000000000e+00
0.000000000000000e+00 0.000000000000000e+00 0.000000000000000e+00
0.000000000000000e+00 0.000000000000000e+00 0.000000000000000e+00
0.000000000000000e+00 0.000000000000000e+00 0.000000000000000e+00
0.000000000000000e+00 0.000000000000000e+00 0.000000000000000e+00
0.000000000000000e+00 0.000000000000000e+00 0.000000000000000e+00
0.000000000000000e+00 0.000000000000000e+00 0.000000000000000e+00
0.000000000000000e+00 0.000000000000000e+00 0.000000000000000e+00
0.000000000000000e+00 0.000000000000000e+00 0.000000000000000e+00
0.000000000000000e+00 0.000000000000000e+00 0.000000000000000e+00
0.000000000000000e+00 0.000000000000000e+00 0.000000000000000e+00
0.000000000000000e+00 0.000000000000000e+00 0.000000000000000e+00
0.000000000000000e+00 0.000000000000000e+00 0.000000000000000e+00
0.000000000000000e+00 0.000000000000000e+00 0.000000000000000e+00
0.000000000000000e+00 0.000000000000000e+00 0.000000000000000e+00
0.000000000000000e+00 0.000000000000000e+00 0.000000000000000e+00
0.000000000000000e+00 0.000000000000000e+00 0.000000000000000e+00
0.000000000000000e+00 0.000000000000000e+00 0.000000000000000e+00
0.000000000000000e+00 0.000000000000000e+00 0.000000000000000e+00
0.000000000000000e+00 0.000000000000000e+00 0.000000000000000e+00
0.000000000000000e+00 0.000000000000000e+00 0.000000000000000e+00
0.000000000000000e+00 0.000000000000000e+00 0.000000000000000e+00
0.000000000000000e+00 0.000000000000000e+00 0.000000000000000e+00
0.000000000000000e+00 0.000000000000000e+00 0.000000000000000e+00
0.000000000000000e+00 0.000000000000000e+00 0.000000000000000e+00
0.000000000000000e+00 0.000000000000000e+00 0.000000000000000e+00
0.000000000000000e+00 0.000000000000000e+00 0.000000000000000e+00
0.000000000000000e+00 0.000000000000000e+00 0.000000000000000e+00
0.000000000000000e+00 0.000000000000000e+00 0.000000000000000e+00
0.000000000000000e+00 0.000000000000000e+00 0.000000000000000e+00
0.000000000000000e+00 0.000000000000000e+00 0.000000000000000e+00
0.000000000000000e+00 0.000000000000000e+00 0.000000000000000e+00
0.000000000000000e+00 0.000000000000000e+00 0.000000000000000e+00
0.000000000000000e+00 0.000000000000000e+00 0.000000000000000e+00
0.000000000000000e+00 0.000000000000000e+00 0.000000000000000e+00
0.000000000000000e+00 0.000000000000000e+00 0.000000000000000e+00
0.000000000000000e+00 0.000000000000000e+00 0.000000000000000e+00
0.000000000000000e+00 0.000000000000000e+00 0.000000000000000e+00
0.000000000000000e+00 0.000000000000000e+00 0.000000000000000e+00
0.000000000000000e+00 0.000000000000000e+00 0.000000000000000e+00
0.000000000000000e+00 0.000000000000000e+00 0.000000000000000e+00
0.000000000000000e+00 0.000000000000000e+00 0.000000000000000e+00
0.000000000000000e+00 0.000000000000000e+00 0.000000000000000e+00
0.000000000000000e+00 0.000000000000000e+00 0.000000000000000e+00
0.000000000000000e+00 0.000000000000000e+00 0.000000000000000e+00
0.000000000000000e+00 0.000000000000000e+00 0.000000000000000e+00
0.000000000000000e+00 0.000000000000000e+00 0.000000000000000e+00
0.000000000000000e+00 0.000000000000000e+00 0.000000000000000e+00
0.000000000000000e+00 0.000000000000000e+00 0.000000000000000e+00
0.000000000000000e+00 0.000000000000000e+00 0.000000000000000e+00
0.000000000000000e+00 0.000000000000000e+00 0.000000000000000e+00
        </DataArray>
        <DataArray type="Float64" Name="nodal_2PK_stresses_xyz" NumberOfComponents="6" format="ascii">
2.480210033146203e-14 -5.308074994265261e-15 -5.863186506577839e-15 1.387599938557677e-15 9.139962028244190e-17 2.255445897546021e-16
-5.050446844819432e-15 -2.231125221500619e-16 -9.070381091855545e-16 -3.393041036041410e-15 -8.542607945462091e-18 -8.533201891267159e-18
6.494099597397276e-16 -1.442222014787673e-15 3.127484158435868e-15 6.008036879843959e-16 3.307198349551003e-17 -1.010073442268788e-16
-1.169719697198507e-14 2.830000795569119e-15 1.571036089510587e-15 -6.107108006263249e-16 -3.548816059547208e-17 -3.726847163577798e-16
1.001922883862952e-14 4.063698308792036e-16 8.814707366577220e-15 -2.712673033040359e-15 5.079790109961664e-15 -8.601672616693211e-15
4.305761225568809e-15 5.043152834526779e-16 -5.415007038110217e-16 8.568362726787062e-16 -6.076058034554841e-19 8.190616475276106e-16
9.704679344632612e-16 -2.234056857751870e-15 -1.438575009641346e-15 -2.181498202074041e-15 -2.445865639326153e-17 -5.481544346823592e-15
-2.015463815556415e-14 -4.143408735633877e-15 -2.173296825536739e-15 6.361152261423029e-15 6.318451368401116e-15 -7.869249324218752e-15
-5.050446844819432e-15 -2.231125221500619e-16 -9.070381091855545e-16 -3.393041036041410e-15 -8.542607945462091e-18 -8.533201891267159e-18
2.804733602733508e-15 -1.015924577198009e-16 1.090295417914696e-15 -3.095313370153723e-15 3.103475150259862e-15 1.224374606636827e-14
-6.759545443513082e-15 3.791482138760900e-16 -2.051776761106478e-15 1.054811348619046e-15 3.008655459504773e-15 4.709269305389834e-15
6.494099597397276e-16 -1.442222014787673e-15 3.127484158435868e-15 6.008036879843959e-16 3.307198349551003e-17 -1.010073442268788e-16
4.305761225568809e-15 5.043152834526779e-16 -5.415007038110217e-16 8.568362726787062e-16 -6.076058034554841e-19 8.190616475276106e-16
-2.143405415471050e-15 -6.703147785339361e-16 -1.313407940064759e-15 4.731173222123499e-16 -2.224905667734257e-15 -7.415712206277411e-15
1.026155359859497e-14 4.027228257328768e-16 -6.567039700323795e-16 -1.035534824974939e-15 -3.754384030267498e-15 -1.050342336800316e-14
9.704679344632612e-16 -2.234056857751870e-15 -1.438575009641346e-15 -2.181498202074041e-15 -2.445865639326153e-17 -5.481544346823592e-15
2.804733602733508e-15 -1.015924577198009e-16 1.090295417914696e-15 -3.095313370153723e-15 3.103475150259862e-15 1.224374606636827e-14
1.541860048339973e-15 -1.360557163778332e-15 3.764260521757786e-15 6.153074865417701e-15 3.533464416341340e-16 -2.290618747738785e-14
8.083632555828151e-15 -4.725741864949569e-15 -2.673965103843091e-15 -3.784465161887769e-15 -1.503759994445217e-15 2.554813557859739e-14
-6.759545443513082e-15 3.791482138760900e-16 -2.051776761106478e-15 1.054811348619046e-15 3.008655459504773e-15 4.709269305389834e-15
-2.143405415471050e-15 -6.703147785339361e-16 -1.313407940064759e-15 4.731173222123499e-16 -2.224905667734257e-15 -7.415712206277411e-15
-4.272222810356790e-15 -2.450852581693028e-15 5.490355090910652e-15 -1.372071821329139e-15 -5.638993779408668e-17 1.582604388976803e-15
-1.774221004950189e-15 0.000000000000000e+00 -1.716130765797635e-15 -6.842429459690223e-16 1.633366683660612e-16 -3.777747774341721e-15
1.026155359859497e-14 4.027228257328768e-16 -6.567039700323795e-16 -1.035534824974939e-15 -3.754384030267498e-15 -1.050342336800316e-14
1.541860048339973e-15 -1.360557163778332e-15 3.764260521757786e-15 6.153074865417701e-15 3.533464416341340e-16 -2.290618747738785e-14
-2.664535259100375e-14 1.055779790618930e-15 2.478074198696143e-15 7.977284959283933e-16 -9.208601037373849e-15 2.652768621052396e-14
3.396000954682943e-14 1.313407940064758e-15 5.293486973679954e-15 -7.366770541049117e-15 5.200025283493961e-15 -2.341586028839263e-14
8.083632555828151e-15 -4.725741864949569e-15 -2.673965103843091e-15 -3.784465161887769e-15 -1.503759994445217e-15 2.554813557859739e-14
-4.272222810356790e-15 -2.450852581693028e-15 5.490355090910652e-15 -1.372071821329139e-15 -5.638993779408668e-17 1.582604388976803e-15
3.493998775894152e-15 4.063698308792037e-16 -2.247667666253427e-15 1.870676679083322e-15 -1.548826862163921e-16 2.230476912677636e-14
1.332267629550188e-14 4.063698308792040e-16 1.211815482344957e-15 -9.819869770560036e-16 -3.927666030885191e-16 3.763172067781807e-14
-1.774221004950189e-15 0.000000000000000e+00 -1.716130765797635e-15 -6.842429459690223e-16 1.633366683660612e-16 -3.777747774341721e-15
1.001922883862952e-14 4.063698308792036e-16 8.814707366577220e-15 -2.712673033040359e-15 5.079790109961664e-15 -8.601672616693211e-15
4.305761225568809e-15 5.043152834526779e-16 -5.415007038110217e-16 8.568362726787062e-16 -6.076058034554841e-19 8.190616475276106e-16
9.704679344632612e-16 -2.234056857751870e-15 -1.438575009641346e-15 -2.181498202074041e-15 -2.445865639326153e-17 -5.481544346823592e-15
-2.015463815556415e-14 -4.143408735633877e-15 -2.173296825536739e-15 6.361152261423029e-15 6.318451368401116e-15 -7.869249324218752e-15
1.665334536937734e-15 -3.053113317719180e-15 -3.689889681041100e-15 -5.630227947541081e-15 -6.207706112990755e-15 1.442438804344545e-14
-1.487416814333753e-16 -4.671298630943344e-16 2.149722213679953e-15 1.015669899056459e-15 -2.444962471898073e-17 -1.573834102060479e-14
4.976076004102744e-15 1.086648412768370e-15 -1.760610196448633e-15 -1.031454299463294e-15 -2.022436491003489e-17 1.757014026088577e-14
-1.759632984364882e-15 1.942890293094024e-15 9.887029601948953e-16 -2.892356392535767e-15 -3.887890694782922e-16 7.789697498135712e-15
4.305761225568809e-15 5.043152834526779e-16 -5.415007038110217e-16 8.568362726787062e-16 -6.076058034554841e-19 8.190616475276106e-16
-2.143405415471050e-15 -6.703147785339361e-16 -1.313407940064759e-15 4.731173222123499e-16 -2.224905667734257e-15 -7.415712206277411e-15
1.026155359859497e-14 4.027228257328768e-16 -6.567039700323795e-16 -1.035534824974939e-15 -3.754384030267498e-15 -1.050342336800316e-14
9.704679344632612e-16 -2.234056857751870e-15 -1.438575009641346e-15 -2.181498202074041e-15 -2.445865639326153e-17 -5.481544346823592e-15
-1.487416814333753e-16 -4.671298630943344e-16 2.149722213679953e-15 1.015669899056459e-15 -2.444962471898073e-17 -1.573834102060479e-14
2.673965103843091e-15 -6.059077411724787e-16 2.992353285504050e-15 -1.209696976116235e-15 -4.638328680121339e-15 -2.756276579441332e-15
-3.635446447034872e-15 -2.816389987067562e-15 -2.068057362670612e-15 3.836518846324432e-16 4.187351396993778e-15 -2.588964636219252e-15
4.976076004102744e-15 1.086648412768370e-15 -1.760610196448633e-15 -1.031454299463294e-15 -2.022436491003489e-17 1.757014026088577e-14
-2.143405415471050e-15 -6.703147785339361e-16 -1.313407940064759e-15 4.731173222123499e-16 -2.224905667734257e-15 -7.415712206277411e-15
-4.272222810356790e-15 -2.450852581693028e-15 5.490355090910652e-15 -1.372071821329139e-15 -5.638993779408668e-17 1.582604388976803e-15
-1.774221004950189e-15 0.000000000000000e+00 -1.716130765797635e-15 -6.842429459690223e-16 1.633366683660612e-16 -3.777747774341721e-15