<?xml version="1.0" ?> 
<!-- 
# vtk DataFile Version 3.0
-->
<VTKFile type="UnstructuredGrid" version="0.1" compressor="vtkZLibDataCompressor" byte_order="LittleEndian">
  <UnstructuredGrid>
    <FieldData>
      <DataArray type="Float64" Name="TIME" NumberOfTuples="1" format="ascii">
0.000000000000000e+00 
      </DataArray>
    </FieldData>

    <Piece NumberOfPoints="1204" NumberOfCells="65" >
      <Points>
        <DataArray type="Float64" NumberOfComponents="3" format="ascii">
-1.000000000000000e+00 2.000000000000000e-01 1.000000000000000e+00
-3.333333333335000e-01 2.000000000000000e-01 1.000000000000000e+00
-3.333333333335001e-01 4.000000000000001e-01 1.000000000000000e+00
-1.000000000000000e+00 4.000000000000000e-01 1.000000000000000e+00
-1.000000000000000e+00 2.000000000000000e-01 2.000000000000000e+00
-3.333333333335000e-01 2.000000000000000e-01 2.000000000000000e+00
-3.333333333335000e-01 4.000000000000000e-01 2.000000000000000e+00
-1.000000000000000e+00 4.000000000000000e-01 2.000000000000000e+00
-6.666666666668751e-01 2.000000000000000e-01 1.000000000000000e+00
-3.333333333335001e-01 3.000000000000000e-01 1.000000000000000e+00
-6.666666666668751e-01 4.000000000000000e-01 1.000000000000000e+00
-1.000000000000000e+00 3.000000000000000e-01 1.000000000000000e+00
-6.666666666668750e-01 2.000000000000000e-01 2.000000000000000e+00
-3.333333333335000e-01 3.000000000000000e-01 2.000000000000000e+00
-6.666666666668750e-01 4.000000000000000e-01 2.000000000000000e+00
-1.000000000000000e+00 3.000000000000000e-01 2.000000000000000e+00
-1.000000000000000e+00 2.000000000000000e-01 1.500000000000000e+00
-3.333333333335001e-01 2.000000000000000e-01 1.500000000000001e+00
-3.333333333335000e-01 4.000000000000000e-01 1.500000000000001e+00
-1.000000000000000e+00 4.000000000000000e-01 1.500000000000001e+00
-1.000000000000000e+00 3.000000000000000e-01 1.500000000000000e+00
-3.333333333335000e-01 2.999999999999999e-01 1.500000000000000e+00
-6.666666666668749e-01 2.000000000000000e-01 1.500000000000000e+00
-6.666666666668750e-01 4.000000000000000e-01 1.500000000000000e+00
-6.666666666668750e-01 2.999999999999999e-01 1.000000000000000e+00
-6.666666666668750e-01 3.000000000000000e-01 2.000000000000000e+00
-6.666666666668751e-01 3.000000000000000e-01 1.500000000000001e+00
-3.333333333335000e-01 2.000000000000000e-01 1.000000000000000e+00
3.333333333335000e-01 2.000000000000000e-01 1.000000000000000e+00
3.333333333335000e-01 4.000000000000000e-01 1.000000000000000e+00
-3.333333333335001e-01 4.000000000000001e-01 1.000000000000000e+00
-3.333333333335000e-01 2.000000000000000e-01 2.000000000000000e+00
3.333333333335000e-01 2.000000000000000e-01 2.000000000000000e+00
3.333333333335000e-01 4.000000000000000e-01 2.000000000000000e+00
-3.333333333335000e-01 4.000000000000000e-01 2.000000000000000e+00
5.551115123125783e-17 2.000000000000000e-01 1.000000000000000e+00
3.333333333335000e-01 3.000000000000000e-01 1.000000000000000e+00
5.551115123125783e-17 4.000000000000000e-01 1.000000000000000e+00
-3.333333333335001e-01 3.000000000000000e-01 1.000000000000000e+00
5.551115123125783e-17 2.000000000000000e-01 2.000000000000000e+00
3.333333333335000e-01 3.000000000000000e-01 2.000000000000000e+00
6.938893903907228e-17 4.000000000000000e-01 2.000000000000000e+00
-3.333333333335000e-01 3.000000000000000e-01 2.000000000000000e+00
-3.333333333335001e-01 2.000000000000000e-01 1.500000000000001e+00
3.333333333335001e-01 2.000000000000001e-01 1.500000000000001e+00
3.333333333335000e-01 4.000000000000000e-01 1.500000000000001e+00
-3.333333333335000e-01 4.000000000000000e-01 1.500000000000001e+00
-3.333333333335000e-01 2.999999999999999e-01 1.500000000000000e+00
3.333333333335000e-01 2.999999999999999e-01 1.500000000000000e+00
7.632783294297951e-17 2.000000000000001e-01 1.500000000000000e+00
6.938893903907228e-17 4.000000000000000e-01 1.500000000000000e+00
5.551115123125783e-17 3.000000000000000e-01 1.000000000000000e+00
5.637851296924623e-17 3.000000000000000e-01 2.000000000000000e+00
5.551115123125783e-17 3.000000000000000e-01 1.500000000000001e+00
3.333333333335000e-01 2.000000000000000e-01 1.000000000000000e+00
1.000000000000000e+00 2.000000000000000e-01 1.000000000000000e+00
1.000000000000000e+00 4.000000000000000e-01 1.000000000000000e+00
3.333333333335000e-01 4.000000000000000e-01 1.000000000000000e+00
3.333333333335000e-01 2.000000000000000e-01 2.000000000000000e+00
1.000000000000000e+00 2.000000000000000e-01 2.000000000000000e+00
1.000000000000000e+00 4.000000000000000e-01 2.000000000000000e+00
3.333333333335000e-01 4.000000000000000e-01 2.000000000000000e+00
6.666666666668749e-01 2.000000000000000e-01 1.000000000000000e+00
1.000000000000000e+00 3.000000000000000e-01 1.000000000000000e+00
6.666666666668749e-01 4.000000000000000e-01 1.000000000000000e+00
3.333333333335000e-01 3.000000000000000e-01 1.000000000000000e+00
6.666666666668750e-01 2.000000000000000e-01 2.000000000000000e+00
1.000000000000000e+00 3.000000000000000e-01 2.000000000000000e+00
6.666666666668750e-01 4.000000000000000e-01 2.000000000000000e+00
3.333333333335000e-01 3.000000000000000e-01 2.000000000000000e+00
3.333333333335001e-01 2.000000000000001e-01 1.500000000000001e+00
1.000000000000000e+00 2.000000000000000e-01 1.500000000000000e+00
1.000000000000000e+00 4.000000000000000e-01 1.500000000000001e+00
3.333333333335000e-01 4.000000000000000e-01 1.500000000000001e+00
3.333333333335000e-01 2.999999999999999e-01 1.500000000000000e+00
1.000000000000000e+00 3.000000000000000e-01 1.500000000000000e+00
6.666666666668748e-01 2.000000000000000e-01 1.500000000000001e+00
6.666666666668748e-01 4.000000000000000e-01 1.500000000000000e+00
6.666666666668750e-01 3.000000000000000e-01 1.000000000000000e+00
6.666666666668749e-01 2.999999999999999e-01 2.000000000000000e+00
6.666666666668750e-01 3.000000000000000e-01 1.500000000000000e+00
-1.000000000000000e+00 4.000000000000000e-01 1.000000000000000e+00
-3.333333333335001e-01 4.000000000000001e-01 1.000000000000000e+00
-3.333333333335001e-01 6.000000000000001e-01 1.000000000000000e+00
-1.000000000000000e+00 6.000000000000000e-01 1.000000000000000e+00
-1.000000000000000e+00 4.000000000000000e-01 2.000000000000000e+00
-3.333333333335000e-01 4.000000000000000e-01 2.000000000000000e+00
-3.333333333335000e-01 6.000000000000000e-01 2.000000000000000e+00
-1.000000000000000e+00 5.999999999999999e-01 2.000000000000000e+00
-6.666666666668751e-01 4.000000000000000e-01 1.000000000000000e+00
-3.333333333335000e-01 5.000000000000001e-01 1.000000000000000e+00
-6.666666666668751e-01 5.999999999999999e-01 1.000000000000000e+00
-1.000000000000000e+00 5.000000000000000e-01 1.000000000000000e+00
-6.666666666668750e-01 4.000000000000000e-01 2.000000000000000e+00
-3.333333333335000e-01 5.000000000000001e-01 2.000000000000000e+00
-6.666666666668750e-01 5.999999999999999e-01 2.000000000000000e+00
-1.000000000000000e+00 5.000000000000001e-01 2.000000000000000e+00
-1.000000000000000e+00 4.000000000000000e-01 1.500000000000001e+00
-3.333333333335000e-01 4.000000000000000e-01 1.500000000000001e+00
-3.333333333335000e-01 5.999999999999999e-01 1.500000000000001e+00
-1.000000000000000e+00 6.000000000000001e-01 1.500000000000001e+00
-1.000000000000000e+00 5.000000000000001e-01 1.500000000000000e+00
-3.333333333335000e-01 5.000000000000000e-01 1.500000000000000e+00
-6.666666666668750e-01 4.000000000000000e-01 1.500000000000000e+00
-6.666666666668749e-01 6.000000000000000e-01 1.500000000000000e+00
-6.666666666668750e-01 4.999999999999999e-01 1.000000000000000e+00
-6.666666666668750e-01 5.000000000000000e-01 2.000000000000000e+00
-6.666666666668752e-01 4.999999999999999e-01 1.500000000000001e+00
-3.333333333335001e-01 4.000000000000001e-01 1.000000000000000e+00
3.333333333335000e-01 4.000000000000000e-01 1.000000000000000e+00
3.333333333335000e-01 6.000000000000000e-01 1.000000000000000e+00
-3.333333333335001e-01 6.000000000000001e-01 1.000000000000000e+00
-3.333333333335000e-01 4.000000000000000e-01 2.000000000000000e+00
3.333333333335000e-01 4.000000000000000e-01 2.000000000000000e+00
3.333333333335000e-01 6.000000000000000e-01 2.000000000000000e+00
-3.333333333335000e-01 6.000000000000000e-01 2.000000000000000e+00
5.551115123125783e-17 4.000000000000000e-01 1.000000000000000e+00
3.333333333335001e-01 5.000000000000001e-01 1.000000000000000e+00
4.510281037539698e-17 6.000000000000000e-01 1.000000000000000e+00
-3.333333333335000e-01 5.000000000000001e-01 1.000000000000000e+00
6.938893903907228e-17 4.000000000000000e-01 2.000000000000000e+00
3.333333333335000e-01 5.000000000000001e-01 2.000000000000000e+00
4.857225732735060e-17 6.000000000000000e-01 2.000000000000000e+00
-3.333333333335000e-01 5.000000000000001e-01 2.000000000000000e+00
-3.333333333335000e-01 4.000000000000000e-01 1.500000000000001e+00
3.333333333335000e-01 4.000000000000000e-01 1.500000000000001e+00
3.333333333334999e-01 5.999999999999999e-01 1.500000000000000e+00
-3.333333333335000e-01 5.999999999999999e-01 1.500000000000001e+00
-3.333333333335000e-01 5.000000000000000e-01 1.500000000000000e+00
3.333333333335000e-01 5.000000000000000e-01 1.500000000000000e+00
6.938893903907228e-17 4.000000000000000e-01 1.500000000000000e+00
5.551115123125783e-17 6.000000000000000e-01 1.500000000000000e+00
5.204170427930421e-17 4.999999999999999e-01 1.000000000000000e+00
5.204170427930421e-17 5.000000000000000e-01 2.000000000000000e+00
5.290906601729262e-17 5.000000000000001e-01 1.500000000000000e+00
3.333333333335000e-01 4.000000000000000e-01 1.000000000000000e+00
1.000000000000000e+00 4.000000000000000e-01 1.000000000000000e+00
1.000000000000000e+00 6.000000000000000e-01 1.000000000000000e+00
3.333333333335000e-01 6.000000000000000e-01 1.000000000000000e+00
3.333333333335000e-01 4.000000000000000e-01 2.000000000000000e+00
1.000000000000000e+00 4.000000000000000e-01 2.000000000000000e+00
1.000000000000000e+00 5.999999999999999e-01 2.000000000000000e+00
3.333333333335000e-01 6.000000000000000e-01 2.000000000000000e+00
[...]
  <PointData>
        <DataArray type="Float64" Name="displacement" NumberOfComponents="3" format="ascii">
0.000000000000000e+00 0.000000000000000e+00 0.000000000000000e+00
0.000000000000000e+00 0.000000000000000e+00 0.000000000000000e+00
0.000000000000000e+00 0.000000000000000e+00 0.000000000000000e+00
0.000000000000000e+00 0.000000000000000e+00 0.000000000000000e+00
0.000000000000000e+00 0.000000000000000e+00 0.000000000000000e+00
0.000000000000000e+00 0.000000000000000e+00 0.000000000000000e+00
0.000000000000000e+00 0.000000000000000e+00 0.000000000000000e+00
0.000000000000000e+00 0.000000000000000e+00 0.000000000000000e+00
0.000000000000000e+00 0.000000000000000e+00 0.000000000000000e+00
0.000000000000000e+00 0.000000000000000e+00 0.000000000000000e+00
0.000000000000000e+00 0.000000000000000e+00 0.000000000000000e+00
0.000000000000000e+00 0.000000000000000e+00 0.000000000000000e+00
0.000000000000000e+00 0.000000000000000e+00 0.000000000000000e+00
0.000000000000000e+00 0.000000000000000e+00 0.000000000000000e+00
0.000000000000000e+00 0.000000000000000e+00 0.000000000000000e+00
0.000000000000000e+00 0.000000000000000e+00 0.000000000000000e+00
0.000000000000000e+00 0.000000000000000e+00 0.000000000000000e+00
0.000000000000000e+00 0.000000000000000e+00 0.000000000000000e+00
0.000000000000000e+00 0.000000000000000e+00 0.000000000000000e+00
0.000000000000000e+00 0.000000000000000e+00 0.000000000000000e+00
0.000000000000000e+00 0.000000000000000e+00 0.000000000000000e+00
0.000000000000000e+00 0.000000000000000e+00 0.000000000000000e+00
0.000000000000000e+00 0.000000000000000e+00 0.000000000000000e+00
0.000000000000000e+00 0.000000000000000e+00 0.000000000000000e+00
0.000000000000000e+00 0.000000000000000e+00 0.000000000000000e+00
0.000000000000000e+00 0.000000000000000e+00 0.000000000000000e+00
0.000000000000000e+00 0.000000000000000e+00 0.000000000000000e+00
0.000000000000000e+00 0.000000000000000e+00 0.000000000000000e+00
0.000000000000000e+00 0.000000000000000e+00 0.000000000000000e+00
0.000000000000000e+00 0.000000000000000e+00 0.000000000000000e+00
0.000000000000000e+00 0.000000000000000e+00 0.000000000000000e+00
0.000000000000000e+00 0.000000000000000e+00 0.000000000000000e+00
0.000000000000000e+00 0.000000000000000e+00 0.000000000000000e+00
0.000000000000000e+00 0.000000000000000e+00 0.000000000000000e+00
0.000000000000000e+00 0.000000000000000e+00 0.000000000000000e+00
0.000000000000000e+00 0.000000000000000e+00 0.000000000000000e+00
0.000000000000000e+00 0.000000000000000e+00 0.000000000000000e+00
0.000000000000000e+00 0.000000000000000e+00 0.000000000000000e+00
0.000000000000000e+00 0.000000000000000e+00 0.000000000000000e+00
0.000000000000000e+00 0.000000000000000e+00 0.000000000000000e+00
0.000000000000000e+00 0.000000000000000e+00 0.000000000000000e+00
0.000000000000000e+00 0.000000000000000e+00 0.000000000000000e+00
0.000000000000000e+00 0.000000000000000e+00 0.000000000000000e+00
0.000000000000000e+00 0.000000000000000e+00 0.000000000000000e+00
0.000000000000000e+00 0.000000000000000e+00 0.000000000000000e+00
0.000000000000000e+00 0.000000000000000e+00 0.000000000000000e+00
0.000000000000000e+00 0.000000000000000e+00 0.000000000000000e+00
0.000000000000000e+00 0.000000000000000e+00 0.000000000000000e+00
0.000000000000000e+00 0.000000000000000e+00 0.000000000000000e+00
0.000000000000000e+00 0.000000000000000e+00 0.000000000000000e+00
0.000000000000000e+00 0.000000000000000e+00 0.000000000000000e+00
0.000000000000000e+00 0.000000000000000e+00 0.000000000000000e+00
0.000000000000000e+00 0.000000000000000e+00 0.000000000000000e+00
0.000000000000000e+00 0.000000000000000e+00 0.000000000000000e+00
0.000000000000000e+00 0.000000000000000e+00 0.000000000000000e+00
0.000000000000000e+00 0.000000000000000e+00 0.000000000000000e+00
0.000000000000000e+00 0.000000000000000e+00 0.000000000000000e+00
0.000000000000000e+00 0.000000000000000e+00 0.000000000000000e+00
0.000000000000000e+00 0.000000000000000e+00 0.000000000000000e+00
0.000000000000000e+00 0.000000000000000e+00 0.000000000000000e+00
0.000000000000000e+00 0.000000000000000e+00 0.000000000000000e+00
0.000000000000000e+00 0.000000000000000e+00 0.000000000000000e+00
0.000000000000000e+00 0.000000000000000e+00 0.000000000000000e+00
0.000000000000000e+00 0.000000000000000e+00 0.000000000000000e+00
0.000000000000000e+00 0.000000000000000e+00 0.000000000000000e+00
0.000000000000000e+00 0.000000000000000e+00 0.000000000000000e+00
0.000000000000000e+00 0.000000000000000e+00 0.000000000000000e+00
0.000000000000000e+00 0.000000000000000e+00 0.000000000000000e+00
0.000000000000000e+00 0.000000000000000e+00 0.000000000000000e+00
0.000000000000000e+00 0.000000000000000e+00 0.000000000000000e+00
0.000000000000000e+00 0.000000000000000e+00 0.000000000000000e+00
0.000000000000000e+00 0.000000000000000e+00 0.000000000000000e+00
0.000000000000000e+00 0.000000000000000e+00 0.000000000000000e+00
0.000000000000000e+00 0.000000000000000e+00 0.000000000000000e+00
0.000000000000000e+00 0.000000000000000e+00 0.000000000000000e+00
0.000000000000000e+00 0.000000000000000e+00 0.000000000000000e+00
0.000000000000000e+00 0.000000000000000e+00 0.000000000000000e+00
0.000000000000000e+00 0.000000000000000e+00 0.000000000000000e+00
0.000000000000000e+00 0.000000000000000e+00 0.000000000000000e+00
0.000000000000000e+00 0.000000000000000e+00 0.000000000000000e+00
0.000000000000000e+00 0.000000000000000e+00 0.000000000000000e+00
0.000000000000000e+00 0.000000000000000e+00 0.000000000000000e+00
0.000000000000000e+00 0.000000000000000e+00 0.000000000000000e+00
0.000000000000000e+00 0.000000000000000e+00 0.000000000000000e+00
0.000000000000000e+00 0.000000000000000e+00 0.000000000000000e+00
0.000000000000000e+00 0.000000000000000e+00 0.000000000000000e+00
0.000000000000000e+00 0.000000000000000e+00 0.000000000000000e+00
0.000000000000000e+00 0.000000000000000e+00 0.000000000000000e+00
0.000000000000000e+00 0.000000000000000e+00 0.000000000000000e+00
0.000000000000000e+00 0.000000000000000e+00 0.000000000000000e+00
0.000000000000000e+00 0.000000000000000e+00 0.000000000000000e+00
0.000000000000000e+00 0.000000000000000e+00 0.000000000000000e+00
0.000000000000000e+00 0.000000000000000e+00 0.000000000000000e+00
0.000000000000000e+00 0.000000000000000e+00 0.000000000000000e+00
0.000000000000000e+00 0.000000000000000e+00 0.000000000000000e+00
0.000000000000000e+00 0.000000000000000e+00 0.000000000000000e+00
0.000000000000000e+00 0.000000000000000e+00 0.000000000000000e+00
0.000000000000000e+00 0.000000000000000e+00 0.000000000000000e+00
0.000000000000000e+00 0.000000000000000e+00 0.000000000000000e+00
0.000000000000000e+00 0.000000000000000e+00 0.000000000000000e+00
0.000000000000000e+00 0.000000000000000e+00 0.000000000000000e+00
0.000000000000000e+00 0.000000000000000e+00 0.000000000000000e+00
0.000000000000000e+00 0.000000000000000e+00 0.000000000000000e+00
0.000000000000000e+00 0.000000000000000e+00 0.000000000000000e+00
0.000000000000000e+00 0.000000000000000e+00 0.000000000000000e+00
0.000000000000000e+00 0.000000000000000e+00 0.000000000000000e+00
0.000000000000000e+00 0.000000000000000e+00 0.000000000000000e+00
0.000000000000000e+00 0.000000000000000e+00 0.000000000000000e+00
0.000000000000000e+00 0.000000000000000e+00 0.000000000000000e+00
0.000000000000000e+00 0.000000000000000e+00 0.000000000000000e+00
0.000000000000000e+00 0.000000000000000e+00 0.000000000000000e+00
0.000000000000000e+00 0.000000000000000e+00 0.000000000000000e+00
0.000000000000000e+00 0.000000000000000e+00 0.000000000000000e+00
0.000000000000000e+00 0.000000000000000e+00 0.000000000000000e+00
0.000000000000000e+00 0.000000000000000e+00 0.000000000000000e+00
0.000000000000000e+00 0.000000000000000e+00 0.000000000000000e+00
0.000000000000000e+00 0.000000000000000e+00 0.000000000000000e+00
0.000000000000000e+00 0.000000000000000e+00 0.000000000000000e+00
0.000000000000000e+00 0.000000000000000e+00 0.000000000000000e+00
0.000000000000000e+00 0.000000000000000e+00 0.000000000000000e+00
0.000000000000000e+00 0.000000000000000e+00 0.000000000000000e+00
0.000000000000000e+00 0.000000000000000e+00 0.000000000000000e+00
0.000000000000000e+00 0.000000000000000e+00 0.000000000000000e+00
0.000000000000000e+00 0.000000000000000e+00 0.000000000000000e+00
0.000000000000000e+00 0.000000000000000e+00 0.000000000000000e+00
0.000000000000000e+00 0.000000000000000e+00 0.000000000000000e+00
0.000000000000000e+00 0.000000000000000e+00 0.000000000000000e+00
0.000000000000000e+00 0.000000000000000e+00 0.000000000000000e+00
0.000000000000000e+00 0.000000000000000e+00 0.000000000000000e+00
0.000000000000000e+00 0.000000000000000e+00 0.000000000000000e+00
0.000000000000000e+00 0.000000000000000e+00 0.000000000000000e+00
0.000000000000000e+00 0.000000000000000e+00 0.000000000000000e+00
0.000000000000000e+00 0.000000000000000e+00 0.000000000000000e+00
0.000000000000000e+00 0.000000000000000e+00 0.000000000000000e+00
0.000000000000000e+00 0.000000000000000e+00 0.000000000000000e+00
0.000000000000000e+00 0.000000000000000e+00 0.000000000000000e+00
0.000000000000000e+00 0.000000000000000e+00 0.000000000000000e+00
0.000000000000000e+00 0.000000000000000e+00 0.000000000000000e+00
0.000000000000000e+00 0.000000000000000e+00 0.000000000000000e+00
0.000000000000000e+00 0.000000000000000e+00 0.000000000000000e+00
0.000000000000000e+00 0.000000000000000e+00 0.000000000000000e+00
0.000000000000000e+00 0.000000000000000e+00 0.000000000000000e+00
0.000000000000000e+00 0.000000000000000e+00 0.000000000000000e+00
0.000000000000000e+00 0.000000000000000e+00 0.000000000000000e+00
0.000000000000000e+00 0.000000000000000e+00 0.000000000000000e+00
0.000000000000000e+00 0.000000000000000e+00 0.000000000000000e+00
0.000000000000000e+00 0.000000000000000e+00 0.000000000000000e+00
0.000000000000000e+00 0.000000000000000e+00 0.000000000000000e+00
0.000000000000000e+00 0.000000000000000e+00 0.000000000000000e+00
0.000000000000000e+00 0.000000000000000e+00 0.000000000000000e+00
0.000000000000000e+00 0.000000000000000e+00 0.000000000000000e+00
0.000000000000000e+00 0.000000000000000e+00 0.000000000000000e+00
0.000000000000000e+00 0.000000000000000e+00 0.000000000000000e+00
0.000000000000000e+00 0.000000000000000e+00 0.000000000000000e+00
0.000000000000000e+00 0.000000000000000e+00 0.000000000000000e+00
0.000000000000000e+00 0.000000000000000e+00 0.000000000000000e+00
0.000000000000000e+00 0.000000000000000e+00 0.000000000000000e+00
0.000000000000000e+00 0.000000000000000e+00 0.000000000000000e+00
0.000000000000000e+00 0.000000000000000e+00 0.000000000000000e+00
0.000000000000000e+00 0.000000000000000e+00 0.000000000000000e+00
0.000000000000000e+00 0.000000000000000e+00 0.000000000000000e+00
0.000000000000000e+00 0.000000000000000e+00 0.000000000000000e+00
0.000000000000000e+00 0.000000000000000e+00 0.000000000000000e+00
0.000000000000000e+00 0.000000000000000e+00 0.000000000000000e+00
0.000000000000000e+00 0.000000000000000e+00 0.000000000000000e+00
0.000000000000000e+00 0.000000000000000e+00 0.000000000000000e+00
0.000000000000000e+00 0.000000000000000e+00 0.000000000000000e+00
0.000000000000000e+00 0.000000000000000e+00 0.000000000000000e+00
0.000000000000000e+00 0.000000000000000e+00 0.000000000000000e+00
0.000000000000000e+00 0.000000000000000e+00 0.000000000000000e+00
0.000000000000000e+00 0.000000000000000e+00 0.000000000000000e+00
0.000000000000000e+00 0.000000000000000e+00 0.000000000000000e+00
0.000000000000000e+00 0.000000000000000e+00 0.000000000000000e+00
0.000000000000000e+00 0.000000000000000e+00 0.000000000000000e+00
0.000000000000000e+00 0.000000000000000e+00 0.000000000000000e+00
0.000000000000000e+00 0.000000000000000e+00 0.000000000000000e+00
0.000000000000000e+00 0.000000000000000e+00 0.000000000000000e+00
0.000000000000000e+00 0.000000000000000e+00 0.000000000000000e+00
0.000000000000000e+00 0.000000000000000e+00 0.000000000000000e+00
0.000000000000000e+00 0.000000000000000e+00 0.000000000000000e+00
0.000000000000000e+00 0.000000000000000e+00 0.000000000000000e+00
0.000000000000000e+00 0.000000000000000e+00 0.000000000000000e+00
0.000000000000000e+00 0.000000000000000e+00 0.000000000000000e+00
0.000000000000000e+00 0.000000000000000e+00 0.000000000000000e+00
0.000000000000000e+00 0.000000000000000e+00 0.000000000000000e+00
0.000000000000000e+00 0.000000000000000e+00 0.000000000000000e+00
0.000000000000000e+00 0.000000000000000e+00 0.000000000000000e+00
0.000000000000000e+00 0.000000000000000e+00 0.000000000000000e+00
0.000000000000000e+00 0.000000000000000e+00 0.000000000000000e+00
0.000000000000000e+00 0.000000000000000e+00 0.000000000000000e+00
0.000000000000000e+00 0.000000000000000e+00 0.000000000000000e+00
0.000000000000000e+00 0.000000000000000e+00 0.000000000000000e+00
0.000000000000000e+00 0.000000000000000e+00 0.000000000000000e+00
0.000000000000000e+00 0.000000000000000e+00 0.000000000000000e+00
0.000000000000000e+00 0.000000000000000e+00 0.000000000000000e+00
0.000000000000000e+00 0.000000000000000e+00 0.000000000000000e+00
0.000000000000000e+00 0.000000000000000e+00 0.000000000000000e+00
0.000000000000000e+00 0.000000000000000e+00 0.000000000000000e+00
0.000000000000000e+00 0.000000000000000e+00 0.000000000000000e+00
0.000000000000000e+00 0.000000000000000e+00 0.000000000000000e+00
0.000000000000000e+00 0.000000000000000e+00 0.000000000000000e+00
0.000000000000000e+00 0.000000000000000e+00 0.000000000000000e+00
0.000000000000000e+00 0.000000000000000e+00 0.000000000000000e+00
0.000000000000000e+00 0.000000000000000e+00 0.000000000000000e+00
0.000000000000000e+00 0.000000000000000e+00 0.000000000000000e+00
0.000000000000000e+00 0.000000000000000e+00 0.000000000000000e+00
0.000000000000000e+00 0.000000000000000e+00 0.000000000000000e+00
0.000000000000000e+00 0.000000000000000e+00 0.000000000000000e+00
0.000000000000000e+00 0.000000000000000e+00 0.000000000000000e+00
0.000000000000000e+00 0.000000000000000e+00 0.000000000000000e+00
0.000000000000000e+00 0.000000000000000e+00 0.000000000000000e+00
0.000000000000000e+00 0.000000000000000e+00 0.000000000000000e+00
0.000000000000000e+00 0.000000000000000e+00 0.000000000000000e+00
0.000000000000000e+00 0.000000000000000e+00 0.000000000000000e+00
0.000000000000000e+00 0.000000000000000e+00 0.000000000000000e+00
0.000000000000000e+00 0.000000000000000e+00 0.000000000000000e+00
0.000000000000000e+00 0.000000000000000e+00 0.000000000000000e+00
0.000000000000000e+00 0.000000000000000e+00 0.000000000000000e+00
0.000000000000000e+00 0.000000000000000e+00 0.000000000000000e+00
0.000000000000000e+00 0.000000000000000e+00 0.000000000000000e+00
0.000000000000000e+00 0.000000000000000e+00 0.000000000000000e+00
0.000000000000000e+00 0.000000000000000e+00 0.000000000000000e+00
0.000000000000000e+00 0.000000000000000e+00 0.000000000000000e+00
0.000000000000000e+00 0.000000000000000e+00 0.000000000000000e+00
0.000000000000000e+00 0.000000000000000e+00 0.000000000000000e+00
0.000000000000000e+00 0.000000000000000e+00 0.000000000000000e+00
0.000000000000000e+00 0.000000000000000e+00 0.000000000000000e+00
0.000000000000000e+00 0.000000000000000e+00 0.000000000000000e+00
0.000000000000000e+00 0.000000000000000e+00 0.000000000000000e+00
0.000000000000000e+00 0.000000000000000e+00 0.000000000000000e+00
0.000000000000000e+00 0.000000000000000e+00 0.000000000000000e+00
0.000000000000000e+00 0.000000000000000e+00 0.000000000000000e+00
0.000000000000000e+00 0.000000000000000e+00 0.000000000000000e+00
0.000000000000000e+00 0.000000000000000e+00 0.000000000000000e+00
0.000000000000000e+00 0.000000000000000e+00 0.000000000000000e+00
0.000000000000000e+00 0.000000000000000e+00 0.000000000000000e+00
0.000000000000000e+00 0.000000000000000e+00 0.000000000000000e+00
0.000000000000000e+00 0.000000000000000e+00 0.000000000000000e+00
0.000000000000000e+00 0.000000000000000e+00 0.000000000000000e+00
0.000000000000000e+00 0.000000000000000e+00 0.000000000000000e+00
0.000000000000000e+00 0.000000000000000e+00 0.000000000000000e+00
0.000000000000000e+00 0.000000000000000e+00 0.000000000000000e+00
0.000000000000000e+00 0.000000000000000e+00 0.000000000000000e+00
0.000000000000000e+00 0.000000000000000e+00 0.000000000000000e+00
0.000000000000000e+00 0.000000000000000e+00 0.000000000000000e+00
0.000000000000000e+00 0.000000000000000e+00 0.000000000000000e+00
0.000000000000000e+00 0.000000000000000e+00 0.000000000000000e+00
0.000000000000000e+00 0.000000000000000e+00 0.000000000000000e+00
0.000000000000000e+00 0.000000000000000e+00 0.000000000000000e+00
0.000000000000000e+00 0.000000000000000e+00 0.000000000000000e+00
0.000000000000000e+00 0.000000000000000e+00 0.000000000000000e+00
0.000000000000000e+00 0.000000000000000e+00 0.000000000000000e+00
0.000000000000000e+00 0.000000000000000e+00 0.000000000000000e+00
0.000000000000000e+00 0.000000000000000e+00 0.000000000000000e+00
0.000000000000000e+00 0.000000000000000e+00 0.000000000000000e+00
0.000000000000000e+00 0.000000000000000e+00 0.000000000000000e+00
0.000000000000000e+00 0.000000000000000e+00 0.000000000000000e+00
0.000000000000000e+00 0.000000000000000e+00 0.000000000000000e+00
0.000000000000000e+00 0.000000000000000e+00 0.000000000000000e+00
0.000000000000000e+00 0.000000000000000e+00 0.000000000000000e+00
0.000000000000000e+00 0.000000000000000e+00 0.000000000000000e+00
0.000000000000000e+00 0.000000000000000e+00 0.000000000000000e+00
0.000000000000000e+00 0.000000000000000e+00 0.000000000000000e+00
0.000000000000000e+00 0.000000000000000e+00 0.000000000000000e+00
0.000000000000000e+00 0.000000000000000e+00 0.000000000000000e+00
0.000000000000000e+00 0.000000000000000e+00 0.000000000000000e+00
0.000000000000000e+00 0.000000000000000e+00 0.000000000000000e+00
0.000000000000000e+00 0.000000000000000e+00 0.000000000000000e+00
0.000000000000000e+00 0.000000000000000e+00 0.000000000000000e+00
0.000000000000000e+00 0.000000000000000e+00 0.000000000000000e+00
0.000000000000000e+00 0.000000000000000e+00 0.000000000000000e+00
0.000000000000000e+00 0.000000000000000e+00 0.000000000000000e+00
0.000000000000000e+00 0.000000000000000e+00 0.000000000000000e+00
0.000000000000000e+00 0.000000000000000e+00 0.000000000000000e+00
0.000000000000000e+00 0.000000000000000e+00 0.000000000000000e+00
0.000000000000000e+00 0.000000000000000e+00 0.000000000000000e+00
0.000000000000000e+00 0.000000000000000e+00 0.000000000000000e+00
0.000000000000000e+00 0.000000000000000e+00 0.000000000000000e+00
0.000000000000000e+00 0.000000000000000e+00 0.000000000000000e+00
0.000000000000000e+00 0.000000000000000e+00 0.000000000000000e+00
0.000000000000000e+00 0.000000000000000e+00 0.000000000000000e+00
0.000000000000000e+00 0.000000000000000e+00 0.000000000000000e+00
0.000000000000000e+00 0.000000000000000e+00 0.000000000000000e+00
0.000000000000000e+00 0.000000000000000e+00 0.000000000000000e+00
0.000000000000000e+00 0.000000000000000e+00 0.000000000000000e+00
0.000000000000000e+00 0.000000000000000e+00 0.000000000000000e+00
0.000000000000000e+00 0.000000000000000e+00 0.000000000000000e+00
0.000000000000000e+00 0.000000000000000e+00 0.000000000000000e+00
0.000000000000000e+00 0.000000000000000e+00 0.000000000000000e+00
0.000000000000000e+00 0.000000000000000e+00 0.000000000000000e+00
0.000000000000000e+00 0.000000000000000e+00 0.000000000000000e+00
0.000000000000000e+00 0.000000000000000e+00 0.000000000000000e+00
0.000000000000000e+00 0.000000000000000e+00 0.000000000000000e+00
0.000000000000000e+00 0.000000000000000e+00 0.000000000000000e+00
0.000000000000000e+00 0.000000000000000e+00 0.000000000000000e+00
0.000000000000000e+00 0.000000000000000e+00 0.000000000000000e+00
0.000000000000000e+00 0.000000000000000e+00 0.000000000000000e+00
0.000000000000000e+00 0.000000000000000e+00 0.000000000000000e+00
0.000000000000000e+00 0.000000000000000e+00 0.000000000000000e+00
0.000000000000000e+00 0.000000000000000e+00 0.000000000000000e+00
0.000000000000000e+00 0.000000000000000e+00 0.000000000000000e+00