<?xml version="1.0" ?> 
<!-- 
# vtk DataFile Version 3.0
-->
<VTKFile type="UnstructuredGrid" version="0.1" compressor="vtkZLibDataCompressor" byte_order="LittleEndian">
  <UnstructuredGrid>
    <FieldData>
      <DataArray type="Float64" Name="TIME" NumberOfTuples="1" format="ascii">
1.000000000000000e-01 
      </DataArray>
    </FieldData>

    <Piece NumberOfPoints="977" NumberOfCells="58" >
      <Points>
        <DataArray type="Float64" NumberOfComponents="3" format="ascii">
-1.000000000000000e+00 2.000000000000000e-01 -4.000000000000000e+00
-3.333333333335000e-01 2.000000000000000e-01 -4.000000000000000e+00
-3.333333333335000e-01 4.000000000000000e-01 -4.000000000000000e+00
-1.000000000000000e+00 4.000000000000000e-01 -4.000000000000000e+00
-1.000000000000000e+00 2.000000000000000e-01 -3.000000000000000e+00
-3.333333333335000e-01 2.000000000000000e-01 -3.000000000000000e+00
-3.333333333335000e-01 4.000000000000000e-01 -3.000000000000000e+00
-1.000000000000000e+00 4.000000000000000e-01 -3.000000000000000e+00
-6.666666666668750e-01 2.000000000000000e-01 -4.000000000000000e+00
-3.333333333335000e-01 3.000000000000000e-01 -4.000000000000000e+00
-6.666666666668750e-01 4.000000000000000e-01 -4.000000000000000e+00
-1.000000000000000e+00 3.000000000000000e-01 -4.000000000000000e+00
-6.666666666668750e-01 2.000000000000000e-01 -3.000000000000000e+00
-3.333333333335000e-01 3.000000000000000e-01 -3.000000000000000e+00
-6.666666666668750e-01 4.000000000000000e-01 -3.000000000000000e+00
-1.000000000000000e+00 3.000000000000000e-01 -3.000000000000000e+00
-1.000000000000000e+00 2.000000000000000e-01 -3.500000000000000e+00
-3.333333333335000e-01 2.000000000000000e-01 -3.500000000000000e+00
-3.333333333335000e-01 4.000000000000000e-01 -3.500000000000000e+00
-1.000000000000000e+00 4.000000000000000e-01 -3.500000000000000e+00
-1.000000000000000e+00 2.999999999999999e-01 -3.500000000000000e+00
-3.333333333335000e-01 2.999999999999999e-01 -3.500000000000000e+00
-6.666666666668749e-01 2.000000000000000e-01 -3.500000000000000e+00
-6.666666666668751e-01 4.000000000000000e-01 -3.500000000000000e+00
-6.666666666668750e-01 3.000000000000000e-01 -4.000000000000000e+00
-6.666666666668751e-01 3.000000000000000e-01 -3.000000000000000e+00
-6.666666666668750e-01 3.000000000000000e-01 -3.500000000000000e+00
-3.333333333335000e-01 2.000000000000000e-01 -4.000000000000000e+00
3.333333333335000e-01 2.000000000000000e-01 -4.000000000000000e+00
3.333333333335000e-01 4.000000000000000e-01 -4.000000000000000e+00
-3.333333333335000e-01 4.000000000000000e-01 -4.000000000000000e+00
-3.333333333335000e-01 2.000000000000000e-01 -3.000000000000000e+00
3.333333333335000e-01 2.000000000000000e-01 -3.000000000000000e+00
3.333333333335000e-01 4.000000000000000e-01 -3.000000000000000e+00
-3.333333333335000e-01 4.000000000000000e-01 -3.000000000000000e+00
5.551115123125783e-17 2.000000000000000e-01 -4.000000000000001e+00
3.333333333335000e-01 3.000000000000000e-01 -4.000000000000000e+00
6.938893903907228e-17 4.000000000000000e-01 -4.000000000000000e+00
-3.333333333335000e-01 3.000000000000000e-01 -4.000000000000000e+00
6.245004513516506e-17 2.000000000000000e-01 -3.000000000000000e+00
3.333333333335000e-01 3.000000000000000e-01 -3.000000000000000e+00
4.857225732735060e-17 4.000000000000000e-01 -3.000000000000000e+00
-3.333333333335000e-01 3.000000000000000e-01 -3.000000000000000e+00
-3.333333333335000e-01 2.000000000000000e-01 -3.500000000000000e+00
3.333333333335000e-01 2.000000000000000e-01 -3.500000000000000e+00
3.333333333335000e-01 4.000000000000000e-01 -3.500000000000000e+00
-3.333333333335000e-01 4.000000000000000e-01 -3.500000000000000e+00
-3.333333333335000e-01 2.999999999999999e-01 -3.500000000000000e+00
3.333333333335000e-01 2.999999999999999e-01 -3.500000000000000e+00
7.632783294297951e-17 2.000000000000000e-01 -3.500000000000000e+00
6.938893903907228e-17 4.000000000000000e-01 -3.500000000000000e+00
5.637851296924623e-17 3.000000000000000e-01 -4.000000000000000e+00
4.423544863740858e-17 2.999999999999999e-01 -3.000000000000000e+00
5.637851296924623e-17 3.000000000000000e-01 -3.500000000000000e+00
3.333333333335000e-01 2.000000000000000e-01 -4.000000000000000e+00
1.000000000000000e+00 2.000000000000000e-01 -4.000000000000000e+00
1.000000000000000e+00 4.000000000000000e-01 -4.000000000000000e+00
3.333333333335000e-01 4.000000000000000e-01 -4.000000000000000e+00
3.333333333335000e-01 2.000000000000000e-01 -3.000000000000000e+00
1.000000000000000e+00 2.000000000000000e-01 -3.000000000000000e+00
1.000000000000000e+00 4.000000000000000e-01 -3.000000000000000e+00
3.333333333335000e-01 4.000000000000000e-01 -3.000000000000000e+00
6.666666666668750e-01 2.000000000000000e-01 -4.000000000000000e+00
1.000000000000000e+00 3.000000000000000e-01 -4.000000000000000e+00
6.666666666668750e-01 4.000000000000000e-01 -4.000000000000000e+00
3.333333333335000e-01 3.000000000000000e-01 -4.000000000000000e+00
6.666666666668749e-01 2.000000000000000e-01 -3.000000000000000e+00
1.000000000000000e+00 3.000000000000000e-01 -3.000000000000000e+00
6.666666666668749e-01 4.000000000000000e-01 -3.000000000000000e+00
3.333333333335000e-01 3.000000000000000e-01 -3.000000000000000e+00
3.333333333335000e-01 2.000000000000000e-01 -3.500000000000000e+00
1.000000000000000e+00 2.000000000000000e-01 -3.500000000000000e+00
1.000000000000000e+00 4.000000000000000e-01 -3.500000000000000e+00
3.333333333335000e-01 4.000000000000000e-01 -3.500000000000000e+00
3.333333333335000e-01 2.999999999999999e-01 -3.500000000000000e+00
1.000000000000000e+00 2.999999999999999e-01 -3.500000000000000e+00
6.666666666668750e-01 2.000000000000000e-01 -3.500000000000000e+00
6.666666666668750e-01 4.000000000000000e-01 -3.500000000000000e+00
6.666666666668749e-01 2.999999999999999e-01 -4.000000000000000e+00
6.666666666668751e-01 3.000000000000000e-01 -3.000000000000000e+00
6.666666666668749e-01 3.000000000000000e-01 -3.500000000000000e+00
-1.000000000000000e+00 2.000000000000000e-01 -3.000000000000000e+00
-3.333333333335000e-01 2.000000000000000e-01 -3.000000000000000e+00
-3.333333333335000e-01 4.000000000000000e-01 -3.000000000000000e+00
-1.000000000000000e+00 4.000000000000000e-01 -3.000000000000000e+00
-1.000000000000000e+00 2.000000000000000e-01 -2.000000000000000e+00
-3.333333333335000e-01 2.000000000000000e-01 -2.000000000000000e+00
-3.333333333335001e-01 4.000000000000000e-01 -2.000000000000000e+00
-1.000000000000000e+00 4.000000000000000e-01 -2.000000000000000e+00
-6.666666666668750e-01 2.000000000000000e-01 -3.000000000000000e+00
-3.333333333335000e-01 3.000000000000000e-01 -3.000000000000000e+00
-6.666666666668750e-01 4.000000000000000e-01 -3.000000000000000e+00
-1.000000000000000e+00 3.000000000000000e-01 -3.000000000000000e+00
-6.666666666668750e-01 2.000000000000000e-01 -2.000000000000000e+00
-3.333333333335001e-01 3.000000000000000e-01 -2.000000000000000e+00
-6.666666666668751e-01 4.000000000000000e-01 -2.000000000000000e+00
-1.000000000000000e+00 3.000000000000000e-01 -2.000000000000000e+00
-1.000000000000000e+00 2.000000000000000e-01 -2.500000000000000e+00
-3.333333333335000e-01 2.000000000000000e-01 -2.500000000000000e+00
-3.333333333335000e-01 4.000000000000000e-01 -2.500000000000000e+00
-1.000000000000000e+00 4.000000000000000e-01 -2.500000000000000e+00
-1.000000000000000e+00 3.000000000000000e-01 -2.500000000000000e+00
-3.333333333334999e-01 3.000000000000000e-01 -2.500000000000000e+00
-6.666666666668750e-01 2.000000000000000e-01 -2.500000000000000e+00
-6.666666666668749e-01 4.000000000000000e-01 -2.500000000000000e+00
-6.666666666668751e-01 3.000000000000000e-01 -3.000000000000000e+00
-6.666666666668751e-01 3.000000000000000e-01 -2.000000000000000e+00
-6.666666666668750e-01 3.000000000000000e-01 -2.500000000000000e+00
-3.333333333335000e-01 2.000000000000000e-01 -3.000000000000000e+00
3.333333333335000e-01 2.000000000000000e-01 -3.000000000000000e+00
3.333333333335000e-01 4.000000000000000e-01 -3.000000000000000e+00
-3.333333333335000e-01 4.000000000000000e-01 -3.000000000000000e+00
-3.333333333335000e-01 2.000000000000000e-01 -2.000000000000000e+00
3.333333333335000e-01 2.000000000000000e-01 -2.000000000000000e+00
3.333333333335000e-01 4.000000000000000e-01 -2.000000000000000e+00
-3.333333333335001e-01 4.000000000000000e-01 -2.000000000000000e+00
6.245004513516506e-17 2.000000000000000e-01 -3.000000000000000e+00
3.333333333335000e-01 3.000000000000000e-01 -3.000000000000000e+00
4.857225732735060e-17 4.000000000000000e-01 -3.000000000000000e+00
-3.333333333335000e-01 3.000000000000000e-01 -3.000000000000000e+00
5.551115123125783e-17 2.000000000000000e-01 -2.000000000000000e+00
3.333333333335000e-01 3.000000000000000e-01 -2.000000000000000e+00
5.551115123125783e-17 4.000000000000000e-01 -2.000000000000000e+00
-3.333333333335001e-01 3.000000000000000e-01 -2.000000000000000e+00
-3.333333333335000e-01 2.000000000000000e-01 -2.500000000000000e+00
3.333333333335000e-01 2.000000000000000e-01 -2.500000000000000e+00
3.333333333335000e-01 3.999999999999999e-01 -2.500000000000000e+00
-3.333333333335000e-01 4.000000000000000e-01 -2.500000000000000e+00
-3.333333333334999e-01 3.000000000000000e-01 -2.500000000000000e+00
3.333333333334999e-01 2.999999999999999e-01 -2.500000000000000e+00
4.857225732735060e-17 2.000000000000000e-01 -2.500000000000000e+00
5.551115123125783e-17 3.999999999999999e-01 -2.500000000000000e+00
4.423544863740858e-17 2.999999999999999e-01 -3.000000000000000e+00
5.290906601729262e-17 2.999999999999999e-01 -2.000000000000000e+00
4.597017211338539e-17 3.000000000000000e-01 -2.500000000000000e+00
3.333333333335000e-01 2.000000000000000e-01 -3.000000000000000e+00
1.000000000000000e+00 2.000000000000000e-01 -3.000000000000000e+00
1.000000000000000e+00 4.000000000000000e-01 -3.000000000000000e+00
3.333333333335000e-01 4.000000000000000e-01 -3.000000000000000e+00
3.333333333335000e-01 2.000000000000000e-01 -2.000000000000000e+00
[...]
  <PointData>
        <DataArray type="Float64" Name="displacement" NumberOfComponents="3" format="ascii">
-8.611336578836572e-06 -2.375231353200561e-04 -3.958282218338363e-05
-1.807302369271967e-06 -2.945683301492975e-04 -4.492949253212858e-05
6.677618648051288e-06 -2.950177450625108e-04 6.135978206199456e-05
2.063979466644442e-05 -2.381706798918710e-04 6.519553842472981e-05
-1.036259962471220e-05 -1.041759642993167e-03 -8.262528398037648e-05
-3.309227089952505e-06 -1.104308340166952e-03 -8.034484899569910e-05
6.121237006729588e-06 -1.105228752539391e-03 1.265427600452039e-04
1.766840851654854e-05 -1.042696378806980e-03 1.249715400964068e-04
-4.410033623259518e-06 -2.745820232165373e-04 -4.242315767361152e-05
2.394902346246800e-06 -2.938002079677500e-04 8.388199238805875e-06
1.351116095132496e-05 -2.751136962175350e-04 6.273669886203133e-05
5.999100689030577e-06 -2.369254876166561e-04 1.240594994482919e-05
-6.727350893733348e-06 -1.080785639938795e-03 -8.106266412488648e-05
1.426848813710683e-06 -1.104105936326732e-03 2.299207570768400e-05
1.207780021207132e-05 -1.081680238640442e-03 1.261563375021192e-04
3.687973728404754e-06 -1.041546944834970e-03 2.132865213564270e-05
-9.903232979115629e-06 -5.742107831834956e-04 -6.327072582545234e-05
-2.819333248212535e-06 -6.372222816793019e-04 -6.244056750999138e-05
6.719793861043686e-06 -6.382017976888965e-04 9.596099390823243e-05
1.906013767301193e-05 -5.751020744627569e-04 9.555456867676108e-05
4.624233424779285e-06 -5.739063049433101e-04 1.621557133547140e-05
1.972191953724780e-06 -6.369950899862036e-04 1.663555623490099e-05
-5.996514630573724e-06 -6.137429983715892e-04 -6.227835955348643e-05
1.317267140387204e-05 -6.146453015683890e-04 9.618265560088368e-05
4.496249088605800e-06 -2.738917677803889e-04 1.019438583401230e-05
2.710477710507047e-06 -1.080562449526398e-03 2.248829881982382e-05
3.627236352773994e-06 -6.134648612666008e-04 1.685640507556754e-05
-1.807302369271967e-06 -2.945683301492975e-04 -4.492949253212858e-05
1.809003668227535e-06 -2.945434810362336e-04 -4.493577835299152e-05
-6.691023940111086e-06 -2.949936252365443e-04 6.136364814817268e-05
6.677618648051288e-06 -2.950177450625108e-04 6.135978206199456e-05
-3.309227089952505e-06 -1.104308340166952e-03 -8.034484899569910e-05
3.302817549073733e-06 -1.104255643499977e-03 -8.036345235872947e-05
-6.155442644055434e-06 -1.105174993064639e-03 1.265393350223797e-04
6.121237006729588e-06 -1.105228752539391e-03 1.265427600452039e-04
-1.503158300692065e-09 -3.002871260964814e-04 -4.610073125867514e-05
-2.400484578921191e-06 -2.937757184454362e-04 8.388524099697552e-06
-7.540297664694804e-09 -3.007039976583351e-04 6.094277087418613e-05
2.394902346246800e-06 -2.938002079677500e-04 8.388199238805875e-06
-1.435260105025153e-09 -1.112180691934920e-03 -8.020179345343868e-05
-1.447416350349024e-06 -1.104052312796451e-03 2.298431114684533e-05
-1.770323385366207e-08 -1.113130733136550e-03 1.265355213453831e-04
1.426848813710683e-06 -1.104105936326732e-03 2.299207570768400e-05
-2.819333248212535e-06 -6.372222816793019e-04 -6.244056750999138e-05
2.791908720099151e-06 -6.372172006030845e-04 -6.245968523326956e-05
-6.750923368394562e-06 -6.381922777865674e-04 9.596224848064391e-05
6.719793861043686e-06 -6.382017976888965e-04 9.596099390823243e-05
1.972191953724780e-06 -6.369950899862036e-04 1.663555623490099e-05
-2.000426420251381e-06 -6.369872267100180e-04 1.663061419079892e-05
-1.031630649919587e-08 -6.449474200940087e-04 -6.281509447618112e-05
-1.567703615217568e-08 -6.459809830272865e-04 9.563803955081624e-05
-4.241541708255514e-09 -2.994838456867591e-04 7.586531535328196e-06
-1.006514542708952e-08 -1.111996269371556e-03 2.307805556232419e-05
-1.299667105484763e-08 -6.447511566260368e-04 1.630847565835153e-05
1.809003668227535e-06 -2.945434810362336e-04 -4.493577835299152e-05
8.633942587444544e-06 -2.374113326048052e-04 -3.951137270510704e-05
-2.064658487387327e-05 -2.380795160010587e-04 6.524251804229534e-05
-6.691023940111086e-06 -2.949936252365443e-04 6.136364814817268e-05
3.302817549073733e-06 -1.104255643499977e-03 -8.036345235872947e-05
1.032980977071939e-05 -1.041671542949355e-03 -8.247938612009962e-05
-1.770487206729799e-05 -1.042582371610035e-03 1.250148590711452e-04
-6.155442644055434e-06 -1.105174993064639e-03 1.265393350223797e-04
4.421668715185139e-06 -2.745230111463947e-04 -4.241315258012106e-05
-5.993258783365027e-06 -2.368262781383198e-04 1.246382204054020e-05
-1.352123716895743e-05 -2.750607554623739e-04 6.275327637414536e-05
-2.400484578921191e-06 -2.937757184454362e-04 8.388524099697552e-06
6.710807253907346e-06 -1.080697744094123e-03 -8.104944386360522e-05
-3.719037435668191e-06 -1.041444375287046e-03 2.140843105072166e-05
-1.211136949737159e-05 -1.081584537497765e-03 1.261628859672736e-04
-1.447416350349024e-06 -1.104052312796451e-03 2.298431114684533e-05
2.791908720099151e-06 -6.372172006030845e-04 -6.245968523326956e-05
9.821815769110711e-06 -5.742738645303399e-04 -6.312359312906768e-05
-1.910817977811086e-05 -5.751263984512384e-04 9.561588637191898e-05
-6.750923368394562e-06 -6.381922777865674e-04 9.596224848064391e-05
-2.000426420251381e-06 -6.369872267100180e-04 1.663061419079892e-05
-4.683957862808361e-06 -5.739489980125263e-04 1.630910202769076e-05
5.948800016872467e-06 -6.137524173630283e-04 -6.226547353348796e-05
-1.320780449570646e-05 -6.146394826875979e-04 9.619955324018743e-05
-4.496074435953089e-06 -2.738363535079127e-04 1.020925993405465e-05
-2.734106535585824e-06 -1.080469777726566e-03 2.249853784754522e-05
-3.665584436593120e-06 -6.134657054386731e-04 1.687361019349480e-05
-1.036259962471220e-05 -1.041759642993167e-03 -8.262528398037648e-05
-3.309227089952505e-06 -1.104308340166952e-03 -8.034484899569910e-05
6.121237006729588e-06 -1.105228752539391e-03 1.265427600452039e-04
1.766840851654854e-05 -1.042696378806980e-03 1.249715400964068e-04
-9.272426490850149e-06 -2.328986152136047e-03 -1.160262767992401e-04
-3.119796866872565e-06 -2.384123493340315e-03 -1.147007308452619e-04
5.101282915838027e-06 -2.384870517223463e-03 1.806056753350783e-04
1.553704221157852e-05 -2.329856679663862e-03 1.795438975006267e-04
-6.727350893733348e-06 -1.080785639938795e-03 -8.106266412488648e-05
1.426848813710683e-06 -1.104105936326732e-03 2.299207570768400e-05
1.207780021207132e-05 -1.081680238640442e-03 1.261563375021192e-04
3.687973728404754e-06 -1.041546944834970e-03 2.132865213564270e-05
-6.219263973925993e-06 -2.363477488658688e-03 -1.152697274286640e-04
9.883496152145816e-07 -2.383855180595914e-03 3.294091444763698e-05
1.027046006872020e-05 -2.364290595834653e-03 1.801427329031355e-04
3.112984297806534e-06 -2.328798685038505e-03 3.183343722050284e-05
-1.011160722537436e-05 -1.630056003170280e-03 -9.956947489076832e-05
-3.376282195752356e-06 -1.688913184443529e-03 -9.798426182790486e-05
5.406787040023027e-06 -1.689613396691684e-03 1.543445105088415e-04
1.648668432131660e-05 -1.630949333636646e-03 1.530876004491882e-04
3.185748414537123e-06 -1.629845155472936e-03 2.683725365932565e-05
1.013894257206589e-06 -1.688577661644810e-03 2.818483574823572e-05
-6.751836109322676e-06 -1.666950339505409e-03 -9.873885790941215e-05
1.088943416924623e-05 -1.667726129405320e-03 1.537717085935869e-04
2.710477710507047e-06 -1.080562449526398e-03 2.248829881982382e-05
2.018092339653080e-06 -2.363249694717450e-03 3.242506519187860e-05
2.067065570051296e-06 -1.666664178647455e-03 2.753090591064091e-05
-3.309227089952505e-06 -1.104308340166952e-03 -8.034484899569910e-05
3.302817549073733e-06 -1.104255643499977e-03 -8.036345235872947e-05
-6.155442644055434e-06 -1.105174993064639e-03 1.265393350223797e-04
6.121237006729588e-06 -1.105228752539391e-03 1.265427600452039e-04
-3.119796866872565e-06 -2.384123493340315e-03 -1.147007308452619e-04
3.122193275047999e-06 -2.384039622719492e-03 -1.147466395217309e-04
-5.142771499166717e-06 -2.384792358847046e-03 1.805920893468780e-04
5.101282915838027e-06 -2.384870517223463e-03 1.806056753350783e-04
-1.435260105025153e-09 -1.112180691934920e-03 -8.020179345343868e-05
-1.447416350349024e-06 -1.104052312796451e-03 2.298431114684533e-05
-1.770323385366207e-08 -1.113130733136550e-03 1.265355213453831e-04
1.426848813710683e-06 -1.104105936326732e-03 2.299207570768400e-05
2.010369666608753e-09 -2.390964195065669e-03 -1.144745979194715e-04
-1.009445973131791e-06 -2.383774630674060e-03 3.291420230455165e-05
-1.996801686021092e-08 -2.391677439628267e-03 1.807997768113581e-04
9.883496152145816e-07 -2.383855180595914e-03 3.294091444763698e-05
-3.376282195752356e-06 -1.688913184443529e-03 -9.798426182790486e-05
3.395116839330332e-06 -1.688812040585813e-03 -9.800609777350529e-05
-5.440689457508039e-06 -1.689516707831289e-03 1.543356884266883e-04
5.406787040023027e-06 -1.689613396691684e-03 1.543445105088415e-04
1.013894257206589e-06 -1.688577661644810e-03 2.818483574823572e-05
-1.023180743285400e-06 -1.688478829764532e-03 2.817153413053137e-05
8.290219183137196e-09 -1.696136448098908e-03 -9.763142799851356e-05
-1.775489325954413e-08 -1.696810475999189e-03 1.546008793886446e-04
-1.006514542708952e-08 -1.111996269371556e-03 2.307805556232419e-05
-9.683335662521768e-09 -2.390676405104560e-03 3.317321636084047e-05
-5.582266428481068e-09 -1.695783310129127e-03 2.849854465917692e-05
3.302817549073733e-06 -1.104255643499977e-03 -8.036345235872947e-05
1.032980977071939e-05 -1.041671542949355e-03 -8.247938612009962e-05
-1.770487206729799e-05 -1.042582371610035e-03 1.250148590711452e-04
-6.155442644055434e-06 -1.105174993064639e-03 1.265393350223797e-04
3.122193275047999e-06 -2.384039622719492e-03 -1.147466395217309e-04
9.284668997708901e-06 -2.328748292688442e-03 -1.160265033273455e-04
-1.557249615089127e-05 -2.329626777675241e-03 1.795457472058254e-04
-5.142771499166717e-06 -2.384792358847046e-03 1.805920893468780e-04
6.710807253907346e-06 -1.080697744094123e-03 -8.104944386360522e-05
-3.719037435668191e-06 -1.041444375287046e-03 2.140843105072166e-05
-1.211136949737159e-05 -1.081584537497765e-03 1.261628859672736e-04
-1.447416350349024e-06 -1.104052312796451e-03 2.298431114684533e-05
6.222497575614474e-06 -2.363313185520758e-03 -1.153271699062767e-04
-3.125009123457398e-06 -2.328563505340357e-03 3.183153057171384e-05
-1.031199254065318e-05 -2.364135422366978e-03 1.801262128441848e-04
-1.009445973131791e-06 -2.383774630674060e-03 3.291420230455165e-05
3.395116839330332e-06 -1.688812040585813e-03 -9.800609777350529e-05
1.015255178325674e-05 -1.629773356217004e-03 -9.947995505919486e-05
-1.650389857902725e-05 -1.630673732382888e-03 1.531034685468290e-04
-5.440689457508039e-06 -1.689516707831289e-03 1.543356884266883e-04
-1.023180743285400e-06 -1.688478829764532e-03 2.817153413053137e-05
-3.174165267399531e-06 -1.629565010787712e-03 2.687738270145524e-05
6.778452436688455e-06 -1.666753247944944e-03 -9.874377288351927e-05
-1.091755717775357e-05 -1.667536368016388e-03 1.537646480153055e-04
-2.734106535585824e-06 -1.080469777726566e-03 2.249853784754522e-05
-2.038650501095868e-06 -2.363090212390596e-03 3.239119835082469e-05
-2.069256601047855e-06 -1.666470602625802e-03 2.752431114904287e-05
1.766840851654854e-05 -1.042696378806980e-03 1.249715400964068e-04
6.121237006729588e-06 -1.105228752539391e-03 1.265427600452039e-04
1.544525061257077e-05 -1.111470048090442e-03 3.343425362339488e-04
4.554509916673787e-05 -1.048927719284704e-03 3.324256119997970e-04
1.553704221157852e-05 -2.329856679663862e-03 1.795438975006267e-04
5.101282915838027e-06 -2.384870517223463e-03 1.806056753350783e-04
1.333512504212284e-05 -2.390734610671232e-03 4.765938915851891e-04
4.042711309568302e-05 -2.335794000596355e-03 4.755283034233121e-04
1.207780021207132e-05 -1.081680238640442e-03 1.261563375021192e-04
1.078901257703827e-05 -1.107681789546704e-03 2.303214861696842e-04
3.070934727888454e-05 -1.087925745865979e-03 3.341016255435868e-04
3.161026393192447e-05 -1.045169463944968e-03 2.285787400138227e-04
1.027046006872020e-05 -2.364290595834653e-03 1.801427329031355e-04
9.217406802355026e-06 -2.387165121242167e-03 3.284408887399623e-04
2.679462866326469e-05 -2.370179041734252e-03 4.762905288443133e-04
2.798125067076947e-05 -2.332181372640388e-03 3.273579156864552e-04
1.648668432131660e-05 -1.630949333636646e-03 1.530876004491882e-04
5.406787040023027e-06 -1.689613396691684e-03 1.543445105088415e-04
1.418652921470381e-05 -1.695753106409250e-03 4.072897815201426e-04
4.308080055732327e-05 -1.637233797609080e-03 4.061263311804959e-04
2.978657640042502e-05 -1.633401295176874e-03 2.794333610868887e-04
9.798848057565812e-06 -1.692009006105910e-03 2.806583099380860e-04
1.088943416924623e-05 -1.667726129405320e-03 1.537717085935869e-04
2.852364765683928e-05 -1.673886479612702e-03 4.069023008660327e-04
2.140172170388773e-05 -1.084135754885458e-03 2.300059477880302e-04
1.853143893576190e-05 -2.366600331632764e-03 3.280442345167369e-04
1.971003857069719e-05 -1.670134220240053e-03 2.801675177188945e-04
6.121237006729588e-06 -1.105228752539391e-03 1.265427600452039e-04
-6.155442644055434e-06 -1.105174993064639e-03 1.265393350223797e-04
-1.550671850729375e-05 -1.111416684279978e-03 3.343378487123297e-04
1.544525061257077e-05 -1.111470048090442e-03 3.343425362339488e-04
5.101282915838027e-06 -2.384870517223463e-03 1.806056753350783e-04
-5.142771499166717e-06 -2.384792358847046e-03 1.805920893468780e-04
-1.341316294087655e-05 -2.390659761563553e-03 4.765970798579217e-04
1.333512504212284e-05 -2.390734610671232e-03 4.765938915851891e-04
-1.770323385366207e-08 -1.113130733136550e-03 1.265355213453831e-04
-1.083672285528913e-05 -1.107628258745496e-03 2.303182904751243e-04
-3.187619516737245e-08 -1.119365427160855e-03 3.341030439853681e-04
1.078901257703827e-05 -1.107681789546704e-03 2.303214861696842e-04
-1.996801686021092e-08 -2.391677439628267e-03 1.807997768113581e-04
-9.277453692075422e-06 -2.387088753667272e-03 3.284365417998131e-04
-3.845356137881762e-08 -2.397536314812574e-03 4.766316543537789e-04
9.217406802355026e-06 -2.387165121242167e-03 3.284408887399623e-04
5.406787040023027e-06 -1.689613396691684e-03 1.543445105088415e-04
-5.440689457508039e-06 -1.689516707831289e-03 1.543356884266883e-04
-1.426518571245154e-05 -1.695659955223695e-03 4.072828533819408e-04
1.418652921470381e-05 -1.695753106409250e-03 4.072897815201426e-04
9.798848057565812e-06 -1.692009006105910e-03 2.806583099380860e-04
-9.855370661256963e-06 -1.691914230934778e-03 2.806511874116100e-04
-1.775489325954413e-08 -1.696810475999189e-03 1.546008793886446e-04
-3.995012356565300e-08 -1.702966618209367e-03 4.073846675547905e-04
-2.481756917150337e-08 -1.115586360107213e-03 2.302005390887329e-04
-2.937948755584696e-08 -2.393964881807401e-03 3.285657129647735e-04
-2.896504955646418e-08 -1.699208170446726e-03 2.808410843128591e-04
-6.155442644055434e-06 -1.105174993064639e-03 1.265393350223797e-04
-1.770487206729799e-05 -1.042582371610035e-03 1.250148590711452e-04
-4.560217427261377e-05 -1.048800028472189e-03 3.324374471779544e-04
-1.550671850729375e-05 -1.111416684279978e-03 3.343378487123297e-04
-5.142771499166717e-06 -2.384792358847046e-03 1.805920893468780e-04
-1.557249615089127e-05 -2.329626777675241e-03 1.795457472058254e-04
-4.050732492028360e-05 -2.335573991342856e-03 4.755452916382761e-04
-1.341316294087655e-05 -2.390659761563553e-03 4.765970798579217e-04
-1.211136949737159e-05 -1.081584537497765e-03 1.261628859672736e-04
-3.165636179075239e-05 -1.045047074983392e-03 2.286033728204598e-04
-3.076743248078399e-05 -1.087827118399770e-03 3.340987249361024e-04
-1.083672285528913e-05 -1.107628258745496e-03 2.303182904751243e-04
-1.031199254065318e-05 -2.364135422366978e-03 1.801262128441848e-04
-2.803939908352319e-05 -2.331957232180328e-03 3.273667873147570e-04
-2.687434081947619e-05 -2.370030478036279e-03 4.762987612389701e-04
-9.277453692075422e-06 -2.387088753667272e-03 3.284365417998131e-04
-5.440689457508039e-06 -1.689516707831289e-03 1.543356884266883e-04
-1.650389857902725e-05 -1.630673732382888e-03 1.531034685468290e-04
-4.315331172246219e-05 -1.636966925427508e-03 4.061269335997643e-04
-1.426518571245154e-05 -1.695659955223695e-03 4.072828533819408e-04
-9.855370661256963e-06 -1.691914230934778e-03 2.806511874116100e-04
-2.983187258594272e-05 -1.633130658197749e-03 2.794395647539306e-04
-1.091755717775357e-05 -1.667536368016388e-03 1.537646480153055e-04
-2.859952407205126e-05 -1.673703322585365e-03 4.068937912980975e-04
-2.144710401719072e-05 -1.084038244143555e-03 2.300081113714896e-04
-1.859229912084933e-05 -2.366448837049130e-03 3.280410187486259e-04
-1.976234707442321e-05 -1.669948092031356e-03 2.801601654775600e-04
-9.272426490850149e-06 -2.328986152136047e-03 -1.160262767992401e-04
-3.119796866872565e-06 -2.384123493340315e-03 -1.147007308452619e-04
5.101282915838027e-06 -2.384870517223463e-03 1.806056753350783e-04
1.553704221157852e-05 -2.329856679663862e-03 1.795438975006267e-04
-7.741736244423242e-06 -4.030506206551075e-03 -1.464720802177748e-04
-2.591750521984788e-06 -4.078025890830578e-03 -1.451119496608229e-04
4.522275882249462e-06 -4.078910891321781e-03 2.274213606936888e-04
1.345669539750933e-05 -4.031399228585000e-03 2.263052493835135e-04
-6.219263973925993e-06 -2.363477488658688e-03 -1.152697274286640e-04
9.883496152145816e-07 -2.383855180595914e-03 3.294091444763698e-05
1.027046006872020e-05 -2.364290595834653e-03 1.801427329031355e-04
3.112984297806534e-06 -2.328798685038505e-03 3.183343722050284e-05
-5.154760863022303e-06 -4.060115762106828e-03 -1.456289128478004e-04
9.699845060297361e-07 -4.077938538080385e-03 4.110320252587862e-05
9.034493012311762e-06 -4.061017322012725e-03 2.270509553571627e-04
2.841396118253949e-06 -4.030420714687778e-03 4.000261062469210e-05
-8.323116478184726e-06 -3.131489687419850e-03 -1.317442813576297e-04
-2.778657507540814e-06 -3.182855613316325e-03 -1.304310341041184e-04
4.906015555978776e-06 -3.183727290108802e-03 2.050550326784990e-04
1.460015497456564e-05 -3.132359587707140e-03 2.040474431717317e-04
3.116070493837354e-06 -3.131344786965508e-03 3.624571786151230e-05
1.067838495550388e-06 -3.182716227850838e-03 3.725035548161038e-05
-5.547587790755224e-06 -3.163491243994028e-03 -1.308386274767556e-04
9.794329239929849e-06 -3.164384154509949e-03 2.047442139759367e-04
2.018092339653080e-06 -2.363249694717450e-03 3.242506519187860e-05
1.941673905536988e-06 -4.060034632787437e-03 4.067150318697056e-05
2.123110843439333e-06 -3.163359634007178e-03 3.689664237887558e-05
-3.119796866872565e-06 -2.384123493340315e-03 -1.147007308452619e-04
3.122193275047999e-06 -2.384039622719492e-03 -1.147466395217309e-04
-5.142771499166717e-06 -2.384792358847046e-03 1.805920893468780e-04
5.101282915838027e-06 -2.384870517223463e-03 1.806056753350783e-04
-2.591750521984788e-06 -4.078025890830578e-03 -1.451119496608229e-04
2.491779918448109e-06 -4.078062925721399e-03 -1.450819668695126e-04
-4.601700778574576e-06 -4.078949497883136e-03 2.274364934875540e-04
4.522275882249462e-06 -4.078910891321781e-03 2.274213606936888e-04
2.010369666608753e-09 -2.390964195065669e-03 -1.144745979194715e-04
-1.009445973131791e-06 -2.383774630674060e-03 3.291420230455165e-05
-1.996801686021092e-08 -2.391677439628267e-03 1.807997768113581e-04
9.883496152145816e-07 -2.383855180595914e-03 3.294091444763698e-05
-4.535400144866152e-08 -4.084065357207159e-03 -1.449275234152560e-04
-1.058760120150439e-06 -4.077977092475092e-03 4.112169420026472e-05
-3.733053420388073e-08 -4.084936196586983e-03 2.275165214011373e-04
9.699845060297361e-07 -4.077938538080385e-03 4.110320252587862e-05
-2.778657507540814e-06 -3.182855613316325e-03 -1.304310341041184e-04
2.736822440122127e-06 -3.182827035798769e-03 -1.304752163161516e-04
-4.962753646899539e-06 -3.183702953176224e-03 2.050464027211121e-04
4.906015555978776e-06 -3.183727290108802e-03 2.050550326784990e-04
1.067838495550388e-06 -3.182716227850838e-03 3.725035548161038e-05
-1.117532334037152e-06 -3.182690467564442e-03 3.722627066307361e-05
-1.697198007164580e-08 -3.189371356785115e-03 -1.303627980978673e-04