<?xml version="1.0" ?> 
<!-- 
# vtk DataFile Version 3.0
-->
<VTKFile type="UnstructuredGrid" version="0.1" compressor="vtkZLibDataCompressor" byte_order="LittleEndian">
  <UnstructuredGrid>
    <FieldData>
      <DataArray type="Float64" Name="TIME" NumberOfTuples="1" format="ascii">
1.000000000000000e-01 
      </DataArray>
    </FieldData>

    <Piece NumberOfPoints="889" NumberOfCells="47" >
      <Points>
        <DataArray type="Float64" NumberOfComponents="3" format="ascii">
-1.000000000000000e+00 2.000000000000000e-01 -5.000000000000000e+00
-3.333333333335000e-01 2.000000000000000e-01 -5.000000000000000e+00
-3.333333333335000e-01 4.000000000000000e-01 -5.000000000000000e+00
-1.000000000000000e+00 4.000000000000000e-01 -5.000000000000000e+00
-1.000000000000000e+00 2.000000000000000e-01 -4.000000000000000e+00
-3.333333333335000e-01 2.000000000000000e-01 -4.000000000000000e+00
-3.333333333335000e-01 4.000000000000000e-01 -4.000000000000000e+00
-1.000000000000000e+00 4.000000000000000e-01 -4.000000000000000e+00
-6.666666666668750e-01 2.000000000000000e-01 -5.000000000000000e+00
-3.333333333335000e-01 3.000000000000000e-01 -5.000000000000000e+00
-6.666666666668750e-01 4.000000000000000e-01 -5.000000000000000e+00
-1.000000000000000e+00 3.000000000000000e-01 -5.000000000000000e+00
-6.666666666668750e-01 2.000000000000000e-01 -4.000000000000000e+00
-3.333333333335000e-01 3.000000000000000e-01 -4.000000000000000e+00
-6.666666666668750e-01 4.000000000000000e-01 -4.000000000000000e+00
-1.000000000000000e+00 3.000000000000000e-01 -4.000000000000000e+00
-1.000000000000000e+00 2.000000000000000e-01 -4.500000000000000e+00
-3.333333333335000e-01 2.000000000000000e-01 -4.500000000000000e+00
-3.333333333335000e-01 4.000000000000000e-01 -4.500000000000000e+00
-1.000000000000000e+00 4.000000000000000e-01 -4.500000000000000e+00
-1.000000000000000e+00 3.000000000000000e-01 -4.500000000000000e+00
-3.333333333335000e-01 3.000000000000000e-01 -4.500000000000000e+00
-6.666666666668749e-01 2.000000000000000e-01 -4.500000000000000e+00
-6.666666666668750e-01 4.000000000000000e-01 -4.500000000000000e+00
-6.666666666668749e-01 3.000000000000000e-01 -5.000000000000000e+00
-6.666666666668750e-01 3.000000000000000e-01 -4.000000000000000e+00
-6.666666666668750e-01 3.000000000000000e-01 -4.500000000000000e+00
-3.333333333335000e-01 2.000000000000000e-01 -5.000000000000000e+00
3.333333333335000e-01 2.000000000000000e-01 -5.000000000000000e+00
3.333333333335000e-01 4.000000000000000e-01 -5.000000000000000e+00
-3.333333333335000e-01 4.000000000000000e-01 -5.000000000000000e+00
-3.333333333335000e-01 2.000000000000000e-01 -4.000000000000000e+00
3.333333333335000e-01 2.000000000000000e-01 -4.000000000000000e+00
3.333333333335000e-01 4.000000000000000e-01 -4.000000000000000e+00
-3.333333333335000e-01 4.000000000000000e-01 -4.000000000000000e+00
5.551115123125783e-17 2.000000000000000e-01 -5.000000000000000e+00
3.333333333335000e-01 3.000000000000000e-01 -5.000000000000000e+00
5.551115123125783e-17 4.000000000000000e-01 -5.000000000000000e+00
-3.333333333335000e-01 3.000000000000000e-01 -5.000000000000000e+00
5.551115123125783e-17 2.000000000000000e-01 -4.000000000000001e+00
3.333333333335000e-01 3.000000000000000e-01 -4.000000000000000e+00
6.938893903907228e-17 4.000000000000000e-01 -4.000000000000000e+00
-3.333333333335000e-01 3.000000000000000e-01 -4.000000000000000e+00
-3.333333333335000e-01 2.000000000000000e-01 -4.500000000000000e+00
3.333333333335000e-01 2.000000000000000e-01 -4.500000000000000e+00
3.333333333335000e-01 4.000000000000000e-01 -4.500000000000000e+00
-3.333333333335000e-01 4.000000000000000e-01 -4.500000000000000e+00
-3.333333333335000e-01 3.000000000000000e-01 -4.500000000000000e+00
3.333333333334999e-01 3.000000000000000e-01 -4.500000000000000e+00
4.857225732735060e-17 2.000000000000000e-01 -4.500000000000001e+00
5.377642775528102e-17 3.999999999999999e-01 -4.500000000000000e+00
4.857225732735060e-17 3.000000000000000e-01 -5.000000000000001e+00
5.637851296924623e-17 3.000000000000000e-01 -4.000000000000000e+00
4.531965080989409e-17 3.000000000000000e-01 -4.500000000000000e+00
3.333333333335000e-01 2.000000000000000e-01 -5.000000000000000e+00
1.000000000000000e+00 2.000000000000000e-01 -5.000000000000000e+00
1.000000000000000e+00 4.000000000000000e-01 -5.000000000000000e+00
3.333333333335000e-01 4.000000000000000e-01 -5.000000000000000e+00
3.333333333335000e-01 2.000000000000000e-01 -4.000000000000000e+00
1.000000000000000e+00 2.000000000000000e-01 -4.000000000000000e+00
1.000000000000000e+00 4.000000000000000e-01 -4.000000000000000e+00
3.333333333335000e-01 4.000000000000000e-01 -4.000000000000000e+00
6.666666666668750e-01 2.000000000000000e-01 -5.000000000000000e+00
1.000000000000000e+00 3.000000000000000e-01 -5.000000000000000e+00
6.666666666668750e-01 4.000000000000000e-01 -5.000000000000000e+00
3.333333333335000e-01 3.000000000000000e-01 -5.000000000000000e+00
6.666666666668750e-01 2.000000000000000e-01 -4.000000000000000e+00
1.000000000000000e+00 3.000000000000000e-01 -4.000000000000000e+00
6.666666666668750e-01 4.000000000000000e-01 -4.000000000000000e+00
3.333333333335000e-01 3.000000000000000e-01 -4.000000000000000e+00
3.333333333335000e-01 2.000000000000000e-01 -4.500000000000000e+00
1.000000000000000e+00 2.000000000000000e-01 -4.500000000000000e+00
1.000000000000000e+00 4.000000000000000e-01 -4.500000000000000e+00
3.333333333335000e-01 4.000000000000000e-01 -4.500000000000000e+00
3.333333333334999e-01 3.000000000000000e-01 -4.500000000000000e+00
1.000000000000000e+00 3.000000000000000e-01 -4.500000000000000e+00
6.666666666668749e-01 2.000000000000000e-01 -4.500000000000000e+00
6.666666666668751e-01 4.000000000000001e-01 -4.500000000000000e+00
6.666666666668749e-01 3.000000000000000e-01 -5.000000000000000e+00
6.666666666668749e-01 2.999999999999999e-01 -4.000000000000000e+00
6.666666666668749e-01 3.000000000000000e-01 -4.500000000000000e+00
-1.000000000000000e+00 4.000000000000000e-01 -5.000000000000000e+00
-3.333333333335000e-01 4.000000000000000e-01 -5.000000000000000e+00
-3.333333333335000e-01 5.999999999999999e-01 -5.000000000000000e+00
-1.000000000000000e+00 5.999999999999999e-01 -5.000000000000000e+00
-1.000000000000000e+00 4.000000000000000e-01 -4.000000000000000e+00
-3.333333333335000e-01 4.000000000000000e-01 -4.000000000000000e+00
-3.333333333335000e-01 6.000000000000000e-01 -4.000000000000000e+00
-1.000000000000000e+00 5.999999999999999e-01 -4.000000000000000e+00
-6.666666666668750e-01 4.000000000000000e-01 -5.000000000000000e+00
-3.333333333335001e-01 5.000000000000001e-01 -5.000000000000000e+00
-6.666666666668750e-01 5.999999999999999e-01 -5.000000000000000e+00
-1.000000000000000e+00 5.000000000000001e-01 -5.000000000000000e+00
-6.666666666668750e-01 4.000000000000000e-01 -4.000000000000000e+00
-3.333333333335000e-01 5.000000000000001e-01 -4.000000000000000e+00
-6.666666666668750e-01 5.999999999999999e-01 -4.000000000000000e+00
-1.000000000000000e+00 5.000000000000001e-01 -4.000000000000001e+00
-1.000000000000000e+00 4.000000000000000e-01 -4.500000000000000e+00
-3.333333333335000e-01 4.000000000000000e-01 -4.500000000000000e+00
-3.333333333335000e-01 5.999999999999999e-01 -4.500000000000000e+00
-1.000000000000000e+00 5.999999999999999e-01 -4.500000000000000e+00
-1.000000000000000e+00 5.000000000000001e-01 -4.500000000000001e+00
-3.333333333335000e-01 5.000000000000000e-01 -4.500000000000000e+00
-6.666666666668750e-01 4.000000000000000e-01 -4.500000000000000e+00
-6.666666666668750e-01 6.000000000000000e-01 -4.500000000000000e+00
-6.666666666668751e-01 5.000000000000001e-01 -5.000000000000001e+00
-6.666666666668750e-01 5.000000000000000e-01 -4.000000000000000e+00
-6.666666666668750e-01 5.000000000000000e-01 -4.500000000000000e+00
-3.333333333335000e-01 4.000000000000000e-01 -5.000000000000000e+00
3.333333333335000e-01 4.000000000000000e-01 -5.000000000000000e+00
3.333333333335000e-01 5.999999999999999e-01 -5.000000000000000e+00
-3.333333333335000e-01 5.999999999999999e-01 -5.000000000000000e+00
-3.333333333335000e-01 4.000000000000000e-01 -4.000000000000000e+00
3.333333333335000e-01 4.000000000000000e-01 -4.000000000000000e+00
3.333333333335000e-01 6.000000000000000e-01 -4.000000000000000e+00
-3.333333333335000e-01 6.000000000000000e-01 -4.000000000000000e+00
5.551115123125783e-17 4.000000000000000e-01 -5.000000000000000e+00
3.333333333335000e-01 5.000000000000000e-01 -5.000000000000000e+00
4.857225732735060e-17 6.000000000000000e-01 -5.000000000000000e+00
-3.333333333335001e-01 5.000000000000001e-01 -5.000000000000000e+00
6.938893903907228e-17 4.000000000000000e-01 -4.000000000000000e+00
3.333333333335000e-01 5.000000000000001e-01 -4.000000000000000e+00
4.857225732735060e-17 6.000000000000000e-01 -4.000000000000000e+00
-3.333333333335000e-01 5.000000000000001e-01 -4.000000000000000e+00
-3.333333333335000e-01 4.000000000000000e-01 -4.500000000000000e+00
3.333333333335000e-01 4.000000000000000e-01 -4.500000000000000e+00
3.333333333335000e-01 5.999999999999999e-01 -4.500000000000000e+00
-3.333333333335000e-01 5.999999999999999e-01 -4.500000000000000e+00
-3.333333333335000e-01 5.000000000000000e-01 -4.500000000000000e+00
3.333333333334999e-01 5.000000000000000e-01 -4.500000000000000e+00
5.377642775528102e-17 3.999999999999999e-01 -4.500000000000000e+00
4.423544863740858e-17 6.000000000000001e-01 -4.500000000000000e+00
4.857225732735060e-17 4.999999999999999e-01 -5.000000000000000e+00
5.204170427930421e-17 5.000000000000000e-01 -4.000000000000000e+00
4.423544863740858e-17 5.000000000000000e-01 -4.500000000000000e+00
3.333333333335000e-01 4.000000000000000e-01 -5.000000000000000e+00
1.000000000000000e+00 4.000000000000000e-01 -5.000000000000000e+00
1.000000000000000e+00 5.999999999999999e-01 -5.000000000000000e+00
3.333333333335000e-01 5.999999999999999e-01 -5.000000000000000e+00
3.333333333335000e-01 4.000000000000000e-01 -4.000000000000000e+00
[...]
  <PointData>
        <DataArray type="Float64" Name="displacement" NumberOfComponents="3" format="ascii">
0.000000000000000e+00 0.000000000000000e+00 0.000000000000000e+00
0.000000000000000e+00 0.000000000000000e+00 0.000000000000000e+00
0.000000000000000e+00 0.000000000000000e+00 0.000000000000000e+00
0.000000000000000e+00 0.000000000000000e+00 0.000000000000000e+00
-8.611336578836572e-06 -2.375231353200561e-04 -3.958282218338363e-05
-1.807302369271967e-06 -2.945683301492975e-04 -4.492949253212858e-05
6.677618648051288e-06 -2.950177450625108e-04 6.135978206199456e-05
2.063979466644442e-05 -2.381706798918710e-04 6.519553842472981e-05
0.000000000000000e+00 0.000000000000000e+00 0.000000000000000e+00
0.000000000000000e+00 0.000000000000000e+00 0.000000000000000e+00
0.000000000000000e+00 0.000000000000000e+00 0.000000000000000e+00
0.000000000000000e+00 0.000000000000000e+00 0.000000000000000e+00
-4.410033623259518e-06 -2.745820232165373e-04 -4.242315767361152e-05
2.394902346246800e-06 -2.938002079677500e-04 8.388199238805875e-06
1.351116095132496e-05 -2.751136962175350e-04 6.273669886203133e-05
5.999100689030577e-06 -2.369254876166561e-04 1.240594994482919e-05
-5.604421795317281e-06 -4.251383054488030e-05 -1.675982844471722e-05
-7.189270781835426e-07 -8.070729858638252e-05 -2.503988353712627e-05
4.826943362715645e-06 -8.063200803971780e-05 2.771436919606037e-05
1.631665645579183e-05 -4.282804007679492e-05 3.348162398443534e-05
5.296411040867769e-06 -4.186866269041688e-05 7.725516615683053e-06
1.976873769073089e-06 -7.973170604710446e-05 1.694761550228827e-06
-2.300373527748890e-06 -6.832644643791551e-05 -2.162204298815248e-05
1.011352007613322e-05 -6.844530241802407e-05 2.946147706769313e-05
0.000000000000000e+00 0.000000000000000e+00 0.000000000000000e+00
4.496249088605800e-06 -2.738917677803889e-04 1.019438583401230e-05
3.794756707761469e-06 -6.751340278558218e-05 4.057248380406868e-06
0.000000000000000e+00 0.000000000000000e+00 0.000000000000000e+00
0.000000000000000e+00 0.000000000000000e+00 0.000000000000000e+00
0.000000000000000e+00 0.000000000000000e+00 0.000000000000000e+00
0.000000000000000e+00 0.000000000000000e+00 0.000000000000000e+00
-1.807302369271967e-06 -2.945683301492975e-04 -4.492949253212858e-05
1.809003668227535e-06 -2.945434810362336e-04 -4.493577835299152e-05
-6.691023940111086e-06 -2.949936252365443e-04 6.136364814817268e-05
6.677618648051288e-06 -2.950177450625108e-04 6.135978206199456e-05
0.000000000000000e+00 0.000000000000000e+00 0.000000000000000e+00
0.000000000000000e+00 0.000000000000000e+00 0.000000000000000e+00
0.000000000000000e+00 0.000000000000000e+00 0.000000000000000e+00
0.000000000000000e+00 0.000000000000000e+00 0.000000000000000e+00
-1.503158300692065e-09 -3.002871260964814e-04 -4.610073125867514e-05
-2.400484578921191e-06 -2.937757184454362e-04 8.388524099697552e-06
-7.540297664694804e-09 -3.007039976583351e-04 6.094277087418613e-05
2.394902346246800e-06 -2.938002079677500e-04 8.388199238805875e-06
-7.189270781835426e-07 -8.070729858638252e-05 -2.503988353712627e-05
7.473011695105850e-07 -8.066193182626035e-05 -2.503484538590011e-05
-4.824473202785924e-06 -8.059190833440918e-05 2.771805749721006e-05
4.826943362715645e-06 -8.063200803971780e-05 2.771436919606037e-05
1.976873769073089e-06 -7.973170604710446e-05 1.694761550228827e-06
-1.962154535717661e-06 -7.968942915724921e-05 1.698249745458743e-06
7.702754021901593e-09 -8.352844203444345e-05 -2.638645077519126e-05
-5.921880828196820e-11 -8.335769674435367e-05 2.740999709680878e-05
0.000000000000000e+00 0.000000000000000e+00 0.000000000000000e+00
-4.241541708255514e-09 -2.994838456867591e-04 7.586531535328196e-06
4.118072135692025e-09 -8.247367924699105e-05 8.408355352218218e-07
0.000000000000000e+00 0.000000000000000e+00 0.000000000000000e+00
0.000000000000000e+00 0.000000000000000e+00 0.000000000000000e+00
0.000000000000000e+00 0.000000000000000e+00 0.000000000000000e+00
0.000000000000000e+00 0.000000000000000e+00 0.000000000000000e+00
1.809003668227535e-06 -2.945434810362336e-04 -4.493577835299152e-05
8.633942587444544e-06 -2.374113326048052e-04 -3.951137270510704e-05
-2.064658487387327e-05 -2.380795160010587e-04 6.524251804229534e-05
-6.691023940111086e-06 -2.949936252365443e-04 6.136364814817268e-05
0.000000000000000e+00 0.000000000000000e+00 0.000000000000000e+00
0.000000000000000e+00 0.000000000000000e+00 0.000000000000000e+00
0.000000000000000e+00 0.000000000000000e+00 0.000000000000000e+00
0.000000000000000e+00 0.000000000000000e+00 0.000000000000000e+00
4.421668715185139e-06 -2.745230111463947e-04 -4.241315258012106e-05
-5.993258783365027e-06 -2.368262781383198e-04 1.246382204054020e-05
-1.352123716895743e-05 -2.750607554623739e-04 6.275327637414536e-05
-2.400484578921191e-06 -2.937757184454362e-04 8.388524099697552e-06
7.473011695105850e-07 -8.066193182626035e-05 -2.503484538590011e-05
5.711550554735953e-06 -4.226102011420675e-05 -1.676331245861778e-05
-1.628791554952353e-05 -4.263846845285841e-05 3.350160545931036e-05
-4.824473202785924e-06 -8.059190833440918e-05 2.771805749721006e-05
-1.962154535717661e-06 -7.968942915724921e-05 1.698249745458743e-06
-5.235689671156228e-06 -4.165151301671507e-05 7.738738795799958e-06
2.361404869382078e-06 -6.820653538009444e-05 -2.161661630259492e-05
-1.010189363207258e-05 -6.834778488040417e-05 2.947108281284901e-05
0.000000000000000e+00 0.000000000000000e+00 0.000000000000000e+00
-4.496074435953089e-06 -2.738363535079127e-04 1.020925993405465e-05
-3.762053851232969e-06 -6.740626925483769e-05 4.064914169473487e-06
0.000000000000000e+00 0.000000000000000e+00 0.000000000000000e+00
0.000000000000000e+00 0.000000000000000e+00 0.000000000000000e+00
0.000000000000000e+00 0.000000000000000e+00 0.000000000000000e+00
0.000000000000000e+00 0.000000000000000e+00 0.000000000000000e+00
2.063979466644442e-05 -2.381706798918710e-04 6.519553842472981e-05
6.677618648051288e-06 -2.950177450625108e-04 6.135978206199456e-05
1.527081067351948e-05 -3.035195319675277e-04 1.678921790797843e-04
4.981214664788703e-05 -2.461608924699594e-04 1.722312976243270e-04
0.000000000000000e+00 0.000000000000000e+00 0.000000000000000e+00
0.000000000000000e+00 0.000000000000000e+00 0.000000000000000e+00
0.000000000000000e+00 0.000000000000000e+00 0.000000000000000e+00
0.000000000000000e+00 0.000000000000000e+00 0.000000000000000e+00
1.351116095132496e-05 -2.751136962175350e-04 6.273669886203133e-05
1.098740270189201e-05 -2.982483751552226e-04 1.143921454910999e-04
3.154918044891797e-05 -2.833974916016426e-04 1.685327558075518e-04
3.526079382789867e-05 -2.412515391686543e-04 1.185494765525014e-04
1.631665645579183e-05 -4.282804007679492e-05 3.348162398443534e-05
4.826943362715645e-06 -8.063200803971780e-05 2.771436919606037e-05
1.063469803035899e-05 -8.813130858779917e-05 8.007836218113976e-05
3.830783163483895e-05 -4.982676394156092e-05 8.700136235533034e-05
2.735442610270039e-05 -4.545854604638581e-05 6.005730283862325e-05
7.742484013044242e-06 -8.342595780601767e-05 5.363641190486509e-05
1.011352007613322e-05 -6.844530241802407e-05 2.946147706769313e-05
2.287478195356488e-05 -7.568140134871827e-05 8.086858148491073e-05
0.000000000000000e+00 0.000000000000000e+00 0.000000000000000e+00
2.255527904479625e-05 -2.782736552504585e-04 1.154380619925198e-04
1.651912551289237e-05 -7.115651278811235e-05 5.494660184532240e-05
0.000000000000000e+00 0.000000000000000e+00 0.000000000000000e+00
0.000000000000000e+00 0.000000000000000e+00 0.000000000000000e+00
0.000000000000000e+00 0.000000000000000e+00 0.000000000000000e+00
0.000000000000000e+00 0.000000000000000e+00 0.000000000000000e+00
6.677618648051288e-06 -2.950177450625108e-04 6.135978206199456e-05
-6.691023940111086e-06 -2.949936252365443e-04 6.136364814817268e-05
-1.530030626652052e-05 -3.034958882343610e-04 1.678980780853915e-04
1.527081067351948e-05 -3.035195319675277e-04 1.678921790797843e-04
0.000000000000000e+00 0.000000000000000e+00 0.000000000000000e+00
0.000000000000000e+00 0.000000000000000e+00 0.000000000000000e+00
0.000000000000000e+00 0.000000000000000e+00 0.000000000000000e+00
0.000000000000000e+00 0.000000000000000e+00 0.000000000000000e+00
-7.540297664694804e-09 -3.007039976583351e-04 6.094277087418613e-05
-1.100887698081868e-05 -2.982245617270289e-04 1.143975230556615e-04
-1.500434329711528e-08 -3.092960015257291e-04 1.683378567395541e-04
1.098740270189201e-05 -2.982483751552226e-04 1.143921454910999e-04
4.826943362715645e-06 -8.063200803971780e-05 2.771436919606037e-05
-4.824473202785924e-06 -8.059190833440918e-05 2.771805749721006e-05
-1.065387967626588e-05 -8.809401977578560e-05 8.008387013378764e-05
1.063469803035899e-05 -8.813130858779917e-05 8.007836218113976e-05
7.742484013044242e-06 -8.342595780601767e-05 5.363641190486509e-05
-7.751199895150050e-06 -8.338742124487604e-05 5.364109268732823e-05
-5.921880828196820e-11 -8.335769674435367e-05 2.740999709680878e-05
-9.246918383127557e-09 -9.099575746231713e-05 8.102026990907840e-05
0.000000000000000e+00 0.000000000000000e+00 0.000000000000000e+00
-1.119578018823829e-08 -3.039679327062961e-04 1.143869061461708e-04
-4.592941438421307e-09 -8.619391574372960e-05 5.393261489346312e-05
0.000000000000000e+00 0.000000000000000e+00 0.000000000000000e+00
0.000000000000000e+00 0.000000000000000e+00 0.000000000000000e+00
0.000000000000000e+00 0.000000000000000e+00 0.000000000000000e+00
0.000000000000000e+00 0.000000000000000e+00 0.000000000000000e+00
-6.691023940111086e-06 -2.949936252365443e-04 6.136364814817268e-05
-2.064658487387327e-05 -2.380795160010587e-04 6.524251804229534e-05
-4.983839985839105e-05 -2.460778197247682e-04 1.722635405059450e-04
-1.530030626652052e-05 -3.034958882343610e-04 1.678980780853915e-04
0.000000000000000e+00 0.000000000000000e+00 0.000000000000000e+00
0.000000000000000e+00 0.000000000000000e+00 0.000000000000000e+00
0.000000000000000e+00 0.000000000000000e+00 0.000000000000000e+00
0.000000000000000e+00 0.000000000000000e+00 0.000000000000000e+00
-1.352123716895743e-05 -2.750607554623739e-04 6.275327637414536e-05
-3.527773284518151e-05 -2.411652839456616e-04 1.185879969731123e-04
-3.157735235270156e-05 -2.833471687488865e-04 1.685481902849654e-04
-1.100887698081868e-05 -2.982245617270289e-04 1.143975230556615e-04
-4.824473202785924e-06 -8.059190833440918e-05 2.771805749721006e-05
-1.628791554952353e-05 -4.263846845285841e-05 3.350160545931036e-05
-3.832176247461288e-05 -4.967066665751780e-05 8.702322735018345e-05
-1.065387967626588e-05 -8.809401977578560e-05 8.008387013378764e-05
-7.751199895150050e-06 -8.338742124487604e-05 5.364109268732823e-05
-2.734873663309831e-05 -4.528911135550368e-05 6.007864811605701e-05
-1.010189363207258e-05 -6.834778488040417e-05 2.947108281284901e-05
-2.289333870707916e-05 -7.559576601269053e-05 8.088093267443387e-05
0.000000000000000e+00 0.000000000000000e+00 0.000000000000000e+00
-2.257470222686216e-05 -2.782223246594683e-04 1.154544140533745e-04
-1.652377005630017e-05 -7.106598341396479e-05 5.495778914275975e-05
0.000000000000000e+00 0.000000000000000e+00 0.000000000000000e+00
0.000000000000000e+00 0.000000000000000e+00 0.000000000000000e+00
0.000000000000000e+00 0.000000000000000e+00 0.000000000000000e+00
0.000000000000000e+00 0.000000000000000e+00 0.000000000000000e+00
4.981214664788703e-05 -2.461608924699594e-04 1.722312976243270e-04
1.527081067351948e-05 -3.035195319675277e-04 1.678921790797843e-04
2.355042199423813e-05 -3.202644396582070e-04 2.782118090095857e-04
7.871992317384378e-05 -2.613735224929378e-04 2.795012364262768e-04
0.000000000000000e+00 0.000000000000000e+00 0.000000000000000e+00
0.000000000000000e+00 0.000000000000000e+00 0.000000000000000e+00
0.000000000000000e+00 0.000000000000000e+00 0.000000000000000e+00
0.000000000000000e+00 0.000000000000000e+00 0.000000000000000e+00
3.154918044891797e-05 -2.833974916016426e-04 1.685327558075518e-04
1.947582346895956e-05 -3.108514689762485e-04 2.223390208964715e-04
4.912920608027516e-05 -2.996012128846703e-04 2.770381984061740e-04
6.429735560400394e-05 -2.528758501324871e-04 2.259716635967408e-04
3.830783163483895e-05 -4.982676394156092e-05 8.700136235533034e-05
1.063469803035899e-05 -8.813130858779917e-05 8.007836218113976e-05
1.601892741897852e-05 -1.037362074319466e-04 1.379014728194368e-04
5.972162025141396e-05 -6.365508210653269e-05 1.404419536784765e-04
4.911689052635949e-05 -5.590238041178749e-05 1.139256351101002e-04
1.342103072791779e-05 -9.486305894359720e-05 1.078850918707188e-04
2.287478195356488e-05 -7.568140134871827e-05 8.086858148491073e-05
3.496288068279051e-05 -9.049405718531129e-05 1.361821396649541e-04
0.000000000000000e+00 0.000000000000000e+00 0.000000000000000e+00
4.042858338648072e-05 -2.905013094275566e-04 2.223047960358593e-04
2.906214760718590e-05 -8.210042913579889e-05 1.077671745652056e-04
0.000000000000000e+00 0.000000000000000e+00 0.000000000000000e+00
0.000000000000000e+00 0.000000000000000e+00 0.000000000000000e+00
0.000000000000000e+00 0.000000000000000e+00 0.000000000000000e+00
0.000000000000000e+00 0.000000000000000e+00 0.000000000000000e+00
1.527081067351948e-05 -3.035195319675277e-04 1.678921790797843e-04
-1.530030626652052e-05 -3.034958882343610e-04 1.678980780853915e-04
-2.359545717613105e-05 -3.202404264525560e-04 2.782173733135528e-04
2.355042199423813e-05 -3.202644396582070e-04 2.782118090095857e-04
0.000000000000000e+00 0.000000000000000e+00 0.000000000000000e+00
0.000000000000000e+00 0.000000000000000e+00 0.000000000000000e+00
0.000000000000000e+00 0.000000000000000e+00 0.000000000000000e+00
0.000000000000000e+00 0.000000000000000e+00 0.000000000000000e+00
-1.500434329711528e-08 -3.092960015257291e-04 1.683378567395541e-04
-1.951320269802263e-05 -3.108277835467877e-04 2.223448494378571e-04
-2.245658948978089e-08 -3.261989338390137e-04 2.797091675431619e-04
1.947582346895956e-05 -3.108514689762485e-04 2.223390208964715e-04
1.063469803035899e-05 -8.813130858779917e-05 8.007836218113976e-05
-1.065387967626588e-05 -8.809401977578560e-05 8.008387013378764e-05
-1.605981903577569e-05 -1.037000320903919e-04 1.379085006298714e-04
1.601892741897852e-05 -1.037362074319466e-04 1.379014728194368e-04
1.342103072791779e-05 -9.486305894359720e-05 1.078850918707188e-04
-1.345069267888917e-05 -9.482659352500261e-05 1.078913520451236e-04
-9.246918383127557e-09 -9.099575746231713e-05 8.102026990907840e-05
-1.903925041317137e-08 -1.069490325118398e-04 1.402576831412881e-04
0.000000000000000e+00 0.000000000000000e+00 0.000000000000000e+00
-1.880995654605381e-08 -3.167018024566347e-04 2.232828635674975e-04
-1.405205344163332e-08 -9.787640276379445e-05 1.095147100296786e-04
0.000000000000000e+00 0.000000000000000e+00 0.000000000000000e+00
0.000000000000000e+00 0.000000000000000e+00 0.000000000000000e+00
0.000000000000000e+00 0.000000000000000e+00 0.000000000000000e+00
0.000000000000000e+00 0.000000000000000e+00 0.000000000000000e+00
-1.530030626652052e-05 -3.034958882343610e-04 1.678980780853915e-04
-4.983839985839105e-05 -2.460778197247682e-04 1.722635405059450e-04
-7.876472691914359e-05 -2.612921325548263e-04 2.795306447344211e-04
-2.359545717613105e-05 -3.202404264525560e-04 2.782173733135528e-04
0.000000000000000e+00 0.000000000000000e+00 0.000000000000000e+00
0.000000000000000e+00 0.000000000000000e+00 0.000000000000000e+00
0.000000000000000e+00 0.000000000000000e+00 0.000000000000000e+00
0.000000000000000e+00 0.000000000000000e+00 0.000000000000000e+00
-3.157735235270156e-05 -2.833471687488865e-04 1.685481902849654e-04
-6.433269489065929e-05 -2.527943577804620e-04 2.260006044799843e-04
-4.917430540593317e-05 -2.995508488930787e-04 2.770525058631691e-04
-1.951320269802263e-05 -3.108277835467877e-04 2.223448494378571e-04
-1.065387967626588e-05 -8.809401977578560e-05 8.008387013378764e-05
-3.832176247461288e-05 -4.967066665751780e-05 8.702322735018345e-05
-5.977482235675799e-05 -6.350962022879801e-05 1.404673466399926e-04
-1.605981903577569e-05 -1.037000320903919e-04 1.379085006298714e-04
-1.345069267888917e-05 -9.482659352500261e-05 1.078913520451236e-04
-4.914959155539141e-05 -5.575391080118714e-05 1.139484309340439e-04
-2.289333870707916e-05 -7.559576601269053e-05 8.088093267443387e-05
-3.500966303769524e-05 -9.041247253893424e-05 1.361972726683765e-04
0.000000000000000e+00 0.000000000000000e+00 0.000000000000000e+00
-4.046521194591283e-05 -2.904513295527245e-04 2.223193169334022e-04
-2.909412717176053e-05 -8.201772995990562e-05 1.077806987391974e-04
2.063979466644442e-05 -2.381706798918710e-04 6.519553842472981e-05
6.677618648051288e-06 -2.950177450625108e-04 6.135978206199456e-05
1.527081067351948e-05 -3.035195319675277e-04 1.678921790797843e-04
4.981214664788703e-05 -2.461608924699594e-04 1.722312976243270e-04
1.766840851654854e-05 -1.042696378806980e-03 1.249715400964068e-04
6.121237006729588e-06 -1.105228752539391e-03 1.265427600452039e-04
1.544525061257077e-05 -1.111470048090442e-03 3.343425362339488e-04
4.554509916673787e-05 -1.048927719284704e-03 3.324256119997970e-04
1.351116095132496e-05 -2.751136962175350e-04 6.273669886203133e-05
1.098740270189201e-05 -2.982483751552226e-04 1.143921454910999e-04
3.154918044891797e-05 -2.833974916016426e-04 1.685327558075518e-04
3.526079382789867e-05 -2.412515391686543e-04 1.185494765525014e-04
1.207780021207132e-05 -1.081680238640442e-03 1.261563375021192e-04
1.078901257703827e-05 -1.107681789546704e-03 2.303214861696842e-04
3.070934727888454e-05 -1.087925745865979e-03 3.341016255435868e-04
3.161026393192447e-05 -1.045169463944968e-03 2.285787400138227e-04
1.906013767301193e-05 -5.751020744627569e-04 9.555456867676108e-05
6.719793861043686e-06 -6.382017976888965e-04 9.596099390823243e-05
1.613283063306292e-05 -6.450155013861033e-04 2.553455404970238e-04
4.779666312867607e-05 -5.816465045845543e-04 2.544519870811094e-04
3.343933062212872e-05 -5.777111286928377e-04 1.749115969935846e-04
1.143587318405335e-05 -6.408670523134922e-04 1.755321778742058e-04
1.317267140387204e-05 -6.146453015683890e-04 9.618265560088368e-05
3.212632553953320e-05 -6.213962725202408e-04 2.554559586123138e-04
2.255527904479625e-05 -2.782736552504585e-04 1.154380619925198e-04
2.140172170388773e-05 -1.084135754885458e-03 2.300059477880302e-04
2.266422348027394e-05 -6.172879088089404e-04 1.757119780904648e-04
6.677618648051288e-06 -2.950177450625108e-04 6.135978206199456e-05
-6.691023940111086e-06 -2.949936252365443e-04 6.136364814817268e-05
-1.530030626652052e-05 -3.034958882343610e-04 1.678980780853915e-04
1.527081067351948e-05 -3.035195319675277e-04 1.678921790797843e-04
6.121237006729588e-06 -1.105228752539391e-03 1.265427600452039e-04
-6.155442644055434e-06 -1.105174993064639e-03 1.265393350223797e-04
-1.550671850729375e-05 -1.111416684279978e-03 3.343378487123297e-04
1.544525061257077e-05 -1.111470048090442e-03 3.343425362339488e-04
-7.540297664694804e-09 -3.007039976583351e-04 6.094277087418613e-05
-1.100887698081868e-05 -2.982245617270289e-04 1.143975230556615e-04
-1.500434329711528e-08 -3.092960015257291e-04 1.683378567395541e-04
1.098740270189201e-05 -2.982483751552226e-04 1.143921454910999e-04
-1.770323385366207e-08 -1.113130733136550e-03 1.265355213453831e-04
-1.083672285528913e-05 -1.107628258745496e-03 2.303182904751243e-04
-3.187619516737245e-08 -1.119365427160855e-03 3.341030439853681e-04
1.078901257703827e-05 -1.107681789546704e-03 2.303214861696842e-04
6.719793861043686e-06 -6.382017976888965e-04 9.596099390823243e-05
-6.750923368394562e-06 -6.381922777865674e-04 9.596224848064391e-05
-1.617325935033834e-05 -6.450039836457507e-04 2.553477091723821e-04
1.613283063306292e-05 -6.450155013861033e-04 2.553455404970238e-04
1.143587318405335e-05 -6.408670523134922e-04 1.755321778742058e-04
-1.147129628990026e-05 -6.408564860320415e-04 1.755347645149451e-04
-1.567703615217568e-08 -6.459809830272865e-04 9.563803955081624e-05
-2.122864535438873e-08 -6.527896016164902e-04 2.550122761965949e-04
-1.119578018823829e-08 -3.039679327062961e-04 1.143869061461708e-04
-2.481756917150337e-08 -1.115586360107213e-03 2.302005390887329e-04