<?xml version="1.0" ?> 
<!-- 
# vtk DataFile Version 3.0
-->
<VTKFile type="UnstructuredGrid" version="0.1" compressor="vtkZLibDataCompressor" byte_order="LittleEndian">
  <UnstructuredGrid>
    <FieldData>
      <DataArray type="Float64" Name="TIME" NumberOfTuples="1" format="ascii">
1.000000000000000e-01 
      </DataArray>
    </FieldData>

    <Piece NumberOfPoints="1204" NumberOfCells="65" >
      <Points>
        <DataArray type="Float64" NumberOfComponents="3" format="ascii">
-1.000000000000000e+00 2.000000000000000e-01 1.000000000000000e+00
-3.333333333335000e-01 2.000000000000000e-01 1.000000000000000e+00
-3.333333333335001e-01 4.000000000000001e-01 1.000000000000000e+00
-1.000000000000000e+00 4.000000000000000e-01 1.000000000000000e+00
-1.000000000000000e+00 2.000000000000000e-01 2.000000000000000e+00
-3.333333333335000e-01 2.000000000000000e-01 2.000000000000000e+00
-3.333333333335000e-01 4.000000000000000e-01 2.000000000000000e+00
-1.000000000000000e+00 4.000000000000000e-01 2.000000000000000e+00
-6.666666666668751e-01 2.000000000000000e-01 1.000000000000000e+00
-3.333333333335001e-01 3.000000000000000e-01 1.000000000000000e+00
-6.666666666668751e-01 4.000000000000000e-01 1.000000000000000e+00
-1.000000000000000e+00 3.000000000000000e-01 1.000000000000000e+00
-6.666666666668750e-01 2.000000000000000e-01 2.000000000000000e+00
-3.333333333335000e-01 3.000000000000000e-01 2.000000000000000e+00
-6.666666666668750e-01 4.000000000000000e-01 2.000000000000000e+00
-1.000000000000000e+00 3.000000000000000e-01 2.000000000000000e+00
-1.000000000000000e+00 2.000000000000000e-01 1.500000000000000e+00
-3.333333333335001e-01 2.000000000000000e-01 1.500000000000001e+00
-3.333333333335000e-01 4.000000000000000e-01 1.500000000000001e+00
-1.000000000000000e+00 4.000000000000000e-01 1.500000000000001e+00
-1.000000000000000e+00 3.000000000000000e-01 1.500000000000000e+00
-3.333333333335000e-01 2.999999999999999e-01 1.500000000000000e+00
-6.666666666668749e-01 2.000000000000000e-01 1.500000000000000e+00
-6.666666666668750e-01 4.000000000000000e-01 1.500000000000000e+00
-6.666666666668750e-01 2.999999999999999e-01 1.000000000000000e+00
-6.666666666668750e-01 3.000000000000000e-01 2.000000000000000e+00
-6.666666666668751e-01 3.000000000000000e-01 1.500000000000001e+00
-3.333333333335000e-01 2.000000000000000e-01 1.000000000000000e+00
3.333333333335000e-01 2.000000000000000e-01 1.000000000000000e+00
3.333333333335000e-01 4.000000000000000e-01 1.000000000000000e+00
-3.333333333335001e-01 4.000000000000001e-01 1.000000000000000e+00
-3.333333333335000e-01 2.000000000000000e-01 2.000000000000000e+00
3.333333333335000e-01 2.000000000000000e-01 2.000000000000000e+00
3.333333333335000e-01 4.000000000000000e-01 2.000000000000000e+00
-3.333333333335000e-01 4.000000000000000e-01 2.000000000000000e+00
5.551115123125783e-17 2.000000000000000e-01 1.000000000000000e+00
3.333333333335000e-01 3.000000000000000e-01 1.000000000000000e+00
5.551115123125783e-17 4.000000000000000e-01 1.000000000000000e+00
-3.333333333335001e-01 3.000000000000000e-01 1.000000000000000e+00
5.551115123125783e-17 2.000000000000000e-01 2.000000000000000e+00
3.333333333335000e-01 3.000000000000000e-01 2.000000000000000e+00
6.938893903907228e-17 4.000000000000000e-01 2.000000000000000e+00
-3.333333333335000e-01 3.000000000000000e-01 2.000000000000000e+00
-3.333333333335001e-01 2.000000000000000e-01 1.500000000000001e+00
3.333333333335001e-01 2.000000000000001e-01 1.500000000000001e+00
3.333333333335000e-01 4.000000000000000e-01 1.500000000000001e+00
-3.333333333335000e-01 4.000000000000000e-01 1.500000000000001e+00
-3.333333333335000e-01 2.999999999999999e-01 1.500000000000000e+00
3.333333333335000e-01 2.999999999999999e-01 1.500000000000000e+00
7.632783294297951e-17 2.000000000000001e-01 1.500000000000000e+00
6.938893903907228e-17 4.000000000000000e-01 1.500000000000000e+00
5.551115123125783e-17 3.000000000000000e-01 1.000000000000000e+00
5.637851296924623e-17 3.000000000000000e-01 2.000000000000000e+00
5.551115123125783e-17 3.000000000000000e-01 1.500000000000001e+00
3.333333333335000e-01 2.000000000000000e-01 1.000000000000000e+00
1.000000000000000e+00 2.000000000000000e-01 1.000000000000000e+00
1.000000000000000e+00 4.000000000000000e-01 1.000000000000000e+00
3.333333333335000e-01 4.000000000000000e-01 1.000000000000000e+00
3.333333333335000e-01 2.000000000000000e-01 2.000000000000000e+00
1.000000000000000e+00 2.000000000000000e-01 2.000000000000000e+00
1.000000000000000e+00 4.000000000000000e-01 2.000000000000000e+00
3.333333333335000e-01 4.000000000000000e-01 2.000000000000000e+00
6.666666666668749e-01 2.000000000000000e-01 1.000000000000000e+00
1.000000000000000e+00 3.000000000000000e-01 1.000000000000000e+00
6.666666666668749e-01 4.000000000000000e-01 1.000000000000000e+00
3.333333333335000e-01 3.000000000000000e-01 1.000000000000000e+00
6.666666666668750e-01 2.000000000000000e-01 2.000000000000000e+00
1.000000000000000e+00 3.000000000000000e-01 2.000000000000000e+00
6.666666666668750e-01 4.000000000000000e-01 2.000000000000000e+00
3.333333333335000e-01 3.000000000000000e-01 2.000000000000000e+00
3.333333333335001e-01 2.000000000000001e-01 1.500000000000001e+00
1.000000000000000e+00 2.000000000000000e-01 1.500000000000000e+00
1.000000000000000e+00 4.000000000000000e-01 1.500000000000001e+00
3.333333333335000e-01 4.000000000000000e-01 1.500000000000001e+00
3.333333333335000e-01 2.999999999999999e-01 1.500000000000000e+00
1.000000000000000e+00 3.000000000000000e-01 1.500000000000000e+00
6.666666666668748e-01 2.000000000000000e-01 1.500000000000001e+00
6.666666666668748e-01 4.000000000000000e-01 1.500000000000000e+00
6.666666666668750e-01 3.000000000000000e-01 1.000000000000000e+00
6.666666666668749e-01 2.999999999999999e-01 2.000000000000000e+00
6.666666666668750e-01 3.000000000000000e-01 1.500000000000000e+00
-1.000000000000000e+00 4.000000000000000e-01 1.000000000000000e+00
-3.333333333335001e-01 4.000000000000001e-01 1.000000000000000e+00
-3.333333333335001e-01 6.000000000000001e-01 1.000000000000000e+00
-1.000000000000000e+00 6.000000000000000e-01 1.000000000000000e+00
-1.000000000000000e+00 4.000000000000000e-01 2.000000000000000e+00
-3.333333333335000e-01 4.000000000000000e-01 2.000000000000000e+00
-3.333333333335000e-01 6.000000000000000e-01 2.000000000000000e+00
-1.000000000000000e+00 5.999999999999999e-01 2.000000000000000e+00
-6.666666666668751e-01 4.000000000000000e-01 1.000000000000000e+00
-3.333333333335000e-01 5.000000000000001e-01 1.000000000000000e+00
-6.666666666668751e-01 5.999999999999999e-01 1.000000000000000e+00
-1.000000000000000e+00 5.000000000000000e-01 1.000000000000000e+00
-6.666666666668750e-01 4.000000000000000e-01 2.000000000000000e+00
-3.333333333335000e-01 5.000000000000001e-01 2.000000000000000e+00
-6.666666666668750e-01 5.999999999999999e-01 2.000000000000000e+00
-1.000000000000000e+00 5.000000000000001e-01 2.000000000000000e+00
-1.000000000000000e+00 4.000000000000000e-01 1.500000000000001e+00
-3.333333333335000e-01 4.000000000000000e-01 1.500000000000001e+00
-3.333333333335000e-01 5.999999999999999e-01 1.500000000000001e+00
-1.000000000000000e+00 6.000000000000001e-01 1.500000000000001e+00
-1.000000000000000e+00 5.000000000000001e-01 1.500000000000000e+00
-3.333333333335000e-01 5.000000000000000e-01 1.500000000000000e+00
-6.666666666668750e-01 4.000000000000000e-01 1.500000000000000e+00
-6.666666666668749e-01 6.000000000000000e-01 1.500000000000000e+00
-6.666666666668750e-01 4.999999999999999e-01 1.000000000000000e+00
-6.666666666668750e-01 5.000000000000000e-01 2.000000000000000e+00
-6.666666666668752e-01 4.999999999999999e-01 1.500000000000001e+00
-3.333333333335001e-01 4.000000000000001e-01 1.000000000000000e+00
3.333333333335000e-01 4.000000000000000e-01 1.000000000000000e+00
3.333333333335000e-01 6.000000000000000e-01 1.000000000000000e+00
-3.333333333335001e-01 6.000000000000001e-01 1.000000000000000e+00
-3.333333333335000e-01 4.000000000000000e-01 2.000000000000000e+00
3.333333333335000e-01 4.000000000000000e-01 2.000000000000000e+00
3.333333333335000e-01 6.000000000000000e-01 2.000000000000000e+00
-3.333333333335000e-01 6.000000000000000e-01 2.000000000000000e+00
5.551115123125783e-17 4.000000000000000e-01 1.000000000000000e+00
3.333333333335001e-01 5.000000000000001e-01 1.000000000000000e+00
4.510281037539698e-17 6.000000000000000e-01 1.000000000000000e+00
-3.333333333335000e-01 5.000000000000001e-01 1.000000000000000e+00
6.938893903907228e-17 4.000000000000000e-01 2.000000000000000e+00
3.333333333335000e-01 5.000000000000001e-01 2.000000000000000e+00
4.857225732735060e-17 6.000000000000000e-01 2.000000000000000e+00
-3.333333333335000e-01 5.000000000000001e-01 2.000000000000000e+00
-3.333333333335000e-01 4.000000000000000e-01 1.500000000000001e+00
3.333333333335000e-01 4.000000000000000e-01 1.500000000000001e+00
3.333333333334999e-01 5.999999999999999e-01 1.500000000000000e+00
-3.333333333335000e-01 5.999999999999999e-01 1.500000000000001e+00
-3.333333333335000e-01 5.000000000000000e-01 1.500000000000000e+00
3.333333333335000e-01 5.000000000000000e-01 1.500000000000000e+00
6.938893903907228e-17 4.000000000000000e-01 1.500000000000000e+00
5.551115123125783e-17 6.000000000000000e-01 1.500000000000000e+00
5.204170427930421e-17 4.999999999999999e-01 1.000000000000000e+00
5.204170427930421e-17 5.000000000000000e-01 2.000000000000000e+00
5.290906601729262e-17 5.000000000000001e-01 1.500000000000000e+00
3.333333333335000e-01 4.000000000000000e-01 1.000000000000000e+00
1.000000000000000e+00 4.000000000000000e-01 1.000000000000000e+00
1.000000000000000e+00 6.000000000000000e-01 1.000000000000000e+00
3.333333333335000e-01 6.000000000000000e-01 1.000000000000000e+00
3.333333333335000e-01 4.000000000000000e-01 2.000000000000000e+00
1.000000000000000e+00 4.000000000000000e-01 2.000000000000000e+00
1.000000000000000e+00 5.999999999999999e-01 2.000000000000000e+00
3.333333333335000e-01 6.000000000000000e-01 2.000000000000000e+00
[...]
  <PointData>
        <DataArray type="Float64" Name="displacement" NumberOfComponents="3" format="ascii">
-5.202479831699885e-06 -8.441297599156327e-03 -1.960062953412407e-04
-1.748074111218058e-06 -8.472861416409136e-03 -1.942884095141908e-04
2.964964145959587e-06 -8.473783877713675e-03 2.965951468817849e-04
8.931213894002251e-06 -8.442240915313726e-03 2.953688045564472e-04
-3.896394236664161e-06 -1.103201986012269e-02 -2.148989781219508e-04
-1.322814952972390e-06 -1.105559961008962e-02 -2.133409143209802e-04
2.198559077725233e-06 -1.105661413174534e-02 3.191346799951484e-04
6.664851725405146e-06 -1.103305587434295e-02 3.179344888009905e-04
-3.465205288667939e-06 -8.461001814827580e-03 -1.948204898972081e-04
6.085498820645097e-07 -8.472964210340867e-03 5.110125787037500e-05
5.962790297313030e-06 -8.461942725257144e-03 2.961838955502806e-04
1.854581595019654e-06 -8.441411966027402e-03 4.979526217327911e-05
-2.607509848315891e-06 -1.104673695246257e-02 -2.138779521923481e-04
4.381531101615422e-07 -1.105584141291097e-02 5.286448255626949e-05
4.438209965311989e-06 -1.104776114576247e-02 3.187127969252882e-04
1.375438856057129e-06 -1.103227861496571e-02 5.162880388603371e-05
-4.604094484558457e-06 -9.710576554283916e-03 -2.060046229039566e-04
-1.539745044833670e-06 -9.738197438666850e-03 -2.042813835787735e-04
2.581430410390007e-06 -9.739128522498348e-03 3.088621844264064e-04
7.776290969330789e-06 -9.711540694788325e-03 3.076041957150194e-04
1.577993205816192e-06 -9.710748888024498e-03 5.090926608578525e-05
5.212102513747492e-07 -9.738347163237231e-03 5.224243128035749e-05
-3.058491057735594e-06 -9.727826519612834e-03 -2.048553969548585e-04
5.191902427145950e-06 -9.728774573731589e-03 3.084318478565209e-04
1.246814194655385e-06 -8.461114375879181e-03 5.063505114752057e-05
9.133666905017585e-07 -1.104698416355861e-02 5.238948430502183e-05
1.064960162341478e-06 -9.727985731941280e-03 5.174967667665536e-05
-1.748074111218058e-06 -8.472861416409136e-03 -1.942884095141908e-04
1.665781669806575e-06 -8.472834938521249e-03 -1.943145766004712e-04
-3.057638487384720e-06 -8.473759970597402e-03 2.965937825964496e-04
2.964964145959587e-06 -8.473783877713675e-03 2.965951468817849e-04
-1.322814952972390e-06 -1.105559961008962e-02 -2.133409143209802e-04
1.226288820273712e-06 -1.105558557301018e-02 -2.132871098030030e-04
-2.306425775755861e-06 -1.105660080786398e-02 3.191558828567109e-04
2.198559077725233e-06 -1.105661413174534e-02 3.191346799951484e-04
-4.108041863247543e-08 -8.476823444205519e-03 -1.941923423595060e-04
-6.968804768752311e-07 -8.472938912326235e-03 5.109258472278231e-05
-4.695022671926783e-08 -8.477733312791148e-03 2.966994715606209e-04
6.085498820645097e-07 -8.472964210340867e-03 5.110125787037500e-05
-4.423893524030492e-08 -1.105856382095507e-02 -2.131799412703606e-04
-5.403244681971148e-07 -1.105582866153823e-02 5.289700845400806e-05
-5.076486131181905e-08 -1.105957422240727e-02 3.192618159818597e-04
4.381531101615422e-07 -1.105584141291097e-02 5.286448255626949e-05
-1.539745044833670e-06 -9.738197438666850e-03 -2.042813835787735e-04
1.453022997975499e-06 -9.738181817594362e-03 -2.043009910695827e-04
-2.680207770330353e-06 -9.739114608814447e-03 3.088644827109776e-04
2.581430410390007e-06 -9.739128522498348e-03 3.088621844264064e-04
5.212102513747492e-07 -9.738347163237231e-03 5.224243128035749e-05
-6.140071032931606e-07 -9.738333548854648e-03 5.223784100727126e-05
-3.889438116064951e-08 -9.741659231357010e-03 -2.041430819066865e-04
-4.573601181083254e-08 -9.742582035916630e-03 3.089785983895880e-04
-4.456409202251559e-08 -8.476919659220532e-03 5.123879738205727e-05
-4.735842829444191e-08 -1.105880477493383e-02 5.303869261439283e-05
-4.214825964859583e-08 -9.741805622134352e-03 5.240074701714499e-05
1.665781669806575e-06 -8.472834938521249e-03 -1.943145766004712e-04
5.115017671695102e-06 -8.441252798646496e-03 -1.958983512544493e-04
-9.020426822398499e-06 -8.442194755422256e-03 2.954055704228909e-04
-3.057638487384720e-06 -8.473759970597402e-03 2.965937825964496e-04
1.226288820273712e-06 -1.105558557301018e-02 -2.132871098030030e-04
3.792547316766097e-06 -1.103196361342654e-02 -2.149717521802481e-04
-6.783335445744127e-06 -1.103299357782861e-02 3.179319545737461e-04
-2.306425775755861e-06 -1.105660080786398e-02 3.191558828567109e-04
3.381488813461598e-06 -8.460957517340262e-03 -1.948262127333607e-04
-1.941411657386508e-06 -8.441366252763061e-03 4.985649044913716e-05
-6.053373173467540e-06 -8.461901301388935e-03 2.961913816602224e-04
-6.968804768752311e-07 -8.472938912326235e-03 5.109258472278231e-05
2.501105256599300e-06 -1.104670534443924e-02 -2.138288900594511e-04
-1.487981465045537e-06 -1.103221703989279e-02 5.160219421569905e-05
-4.555067894326696e-06 -1.104772891678219e-02 3.187386669454304e-04
-5.403244681971148e-07 -1.105582866153823e-02 5.289700845400806e-05
1.453022997975499e-06 -9.738181817594362e-03 -2.043009910695827e-04
4.501306062742743e-06 -9.710522887954029e-03 -2.059142209406189e-04
-7.890720076981534e-06 -9.711479764936453e-03 3.076395621621335e-04
-2.680207770330353e-06 -9.739114608814447e-03 3.088644827109776e-04
-6.140071032931606e-07 -9.738333548854648e-03 5.223784100727126e-05
-1.687471351233049e-06 -9.710689316893851e-03 5.096261474145925e-05
2.958819132601167e-06 -9.727793576689753e-03 -2.048573058275356e-04
-5.301898060332581e-06 -9.728741949163743e-03 3.084435623240134e-04
-1.333972067120831e-06 -8.461071325044802e-03 5.063951678199423e-05
-1.025585362722229e-06 -1.104695283057445e-02 5.242348925961139e-05
-1.170427670255720e-06 -9.727953821180396e-03 5.175727599921609e-05
8.931213894002251e-06 -8.442240915313726e-03 2.953688045564472e-04
2.964964145959587e-06 -8.473783877713675e-03 2.965951468817849e-04
7.682384182088528e-06 -8.477581521393059e-03 7.882749764599785e-04
2.311517082003679e-05 -8.446041439505645e-03 7.869361356860052e-04
6.664851725405146e-06 -1.103305587434295e-02 3.179344888009905e-04
2.198559077725233e-06 -1.105661413174534e-02 3.191346799951484e-04
5.722190033733657e-06 -1.105973084325011e-02 8.523264874109775e-04
1.726353566199654e-05 -1.103617493318920e-02 8.509894771927397e-04
5.962790297313030e-06 -8.461942725257144e-03 2.961838955502806e-04
5.322473854592487e-06 -8.475322340680191e-03 5.422881041887492e-04
1.540726890304218e-05 -8.465751424142017e-03 7.880216049337049e-04
1.602041199306795e-05 -8.443784166608679e-03 5.409904047475830e-04
4.438209965311989e-06 -1.104776114576247e-02 3.187127969252882e-04
3.959529276616625e-06 -1.105791239804197e-02 5.855839307089526e-04
1.149631549335357e-05 -1.105088337589371e-02 8.520627751674958e-04
1.196362408838369e-05 -1.103435389487669e-02 5.842955540831493e-04
7.776290969330789e-06 -9.711540694788325e-03 3.076041957150194e-04
2.581430410390007e-06 -9.739128522498348e-03 3.088621844264064e-04
6.704710647548620e-06 -9.742576868925854e-03 8.227789234263959e-04
2.019927952962363e-05 -9.714998441518246e-03 8.214171613393111e-04
1.398523950944628e-05 -9.712955903108531e-03 5.643501620955826e-04
4.642176764888998e-06 -9.740539197408474e-03 5.656752303211578e-04
5.191902427145950e-06 -9.728774573731589e-03 3.084318478565209e-04
1.345584024352828e-05 -9.732231873925388e-03 8.225124664462684e-04
1.068288715490772e-05 -8.463488021748938e-03 5.419410709370245e-04
7.966149668725645e-06 -1.104906263717417e-02 5.852259168266974e-04
9.322230774825624e-06 -9.730190727040662e-03 5.653123624809785e-04
2.964964145959587e-06 -8.473783877713675e-03 2.965951468817849e-04
-3.057638487384720e-06 -8.473759970597402e-03 2.965937825964496e-04
-7.781703159938843e-06 -8.477560020464599e-03 7.882737437098430e-04
7.682384182088528e-06 -8.477581521393059e-03 7.882749764599785e-04
2.198559077725233e-06 -1.105661413174534e-02 3.191346799951484e-04
-2.306425775755861e-06 -1.105660080786398e-02 3.191558828567109e-04
-5.841230728060830e-06 -1.105971545373502e-02 8.523402652674462e-04
5.722190033733657e-06 -1.105973084325011e-02 8.523264874109775e-04
-4.695022671926783e-08 -8.477733312791148e-03 2.966994715606209e-04
-5.418557626734917e-06 -8.475299783316331e-03 5.422878809492351e-04
-5.032571488490100e-08 -8.481521222940134e-03 7.881933296052249e-04
5.322473854592487e-06 -8.475322340680191e-03 5.422881041887492e-04
-5.076486131181905e-08 -1.105957422240727e-02 3.192618159818597e-04
-4.073049672383456e-06 -1.105789780694404e-02 5.856001046971693e-04
-5.745420926916166e-08 -1.106268548571252e-02 8.522593915640174e-04
3.959529276616625e-06 -1.105791239804197e-02 5.855839307089526e-04
2.581430410390007e-06 -9.739128522498348e-03 3.088621844264064e-04
-2.680207770330353e-06 -9.739114608814447e-03 3.088644827109776e-04
-6.814922168038167e-06 -9.742560971964045e-03 8.227844320880106e-04
6.704710647548620e-06 -9.742576868925854e-03 8.227789234263959e-04
4.642176764888998e-06 -9.740539197408474e-03 5.656752303211578e-04
-4.746779344718038e-06 -9.740524061756626e-03 5.656797433138025e-04
-4.573601181083254e-08 -9.742582035916630e-03 3.089785983895880e-04
-5.268493180898448e-08 -9.746023282833971e-03 8.227063170501565e-04
-4.871278143573025e-08 -8.479266476752605e-03 5.423106567703038e-04
-5.421214980065330e-08 -1.106086888534396e-02 5.856238939318109e-04
-4.935058631006125e-08 -9.743988060288339e-03 5.657079593531047e-04
-3.057638487384720e-06 -8.473759970597402e-03 2.965937825964496e-04
-9.020426822398499e-06 -8.442194755422256e-03 2.954055704228909e-04
-2.321249680224123e-05 -8.445995342118763e-03 7.869524905829005e-04
-7.781703159938843e-06 -8.477560020464599e-03 7.882737437098430e-04
-2.306425775755861e-06 -1.105660080786398e-02 3.191558828567109e-04
-6.783335445744127e-06 -1.103299357782861e-02 3.179319545737461e-04
-1.739157437902233e-05 -1.103611443922695e-02 8.510043642796694e-04
-5.841230728060830e-06 -1.105971545373502e-02 8.523402652674462e-04
-6.053373173467540e-06 -8.461901301388935e-03 2.961913816602224e-04
-1.611359835884777e-05 -8.443737915561638e-03 5.410154000173121e-04
-1.550475718006154e-05 -8.465713023634726e-03 7.880241527202592e-04
-5.418557626734917e-06 -8.475299783316331e-03 5.422878809492351e-04
-4.555067894326696e-06 -1.104772891678219e-02 3.187386669454304e-04
-1.208677846913471e-05 -1.103429284001350e-02 5.843038906697757e-04
-1.162173796914425e-05 -1.105084901550928e-02 8.520837192598140e-04
-4.073049672383456e-06 -1.105789780694404e-02 5.856001046971693e-04
-2.680207770330353e-06 -9.739114608814447e-03 3.088644827109776e-04
-7.890720076981534e-06 -9.711479764936453e-03 3.076395621621335e-04
-2.032250207831965e-05 -9.714938398297126e-03 8.214419524997765e-04
-6.814922168038167e-06 -9.742560971964045e-03 8.227844320880106e-04
-4.746779344718038e-06 -9.740524061756626e-03 5.656797433138025e-04
-1.410390776813348e-05 -9.712895652073613e-03 5.643786613915304e-04
-5.301898060332581e-06 -9.728741949163743e-03 3.084435623240134e-04
-1.357414617794103e-05 -9.732196991917845e-03 8.225255500634033e-04
-1.077690478473047e-05 -8.463448262282345e-03 5.419470407050641e-04
-8.087174656904054e-06 -1.104902913458596e-02 5.852482184586250e-04
-9.436251181578115e-06 -9.730156744717127e-03 5.653251285457711e-04
2.311517082003679e-05 -8.446041439505645e-03 7.869361356860052e-04
7.682384182088528e-06 -8.477581521393059e-03 7.882749764599785e-04
1.240675231871113e-05 -8.484235604155406e-03 1.281488899989652e-03
3.731373675025733e-05 -8.452689001232291e-03 1.280817831630688e-03
1.726353566199654e-05 -1.103617493318920e-02 8.509894771927397e-04
5.722190033733657e-06 -1.105973084325011e-02 8.523264874109775e-04
9.254788571876101e-06 -1.106495711672409e-02 1.387147914990358e-03
2.785035435433674e-05 -1.104141530658943e-02 1.386473184566200e-03
1.540726890304218e-05 -8.465751424142017e-03 7.880216049337049e-04
1.004403153470798e-05 -8.480554811876666e-03 1.034645372219078e-03
2.486476487498554e-05 -8.472412089215845e-03 1.281634164103888e-03
3.021358189805213e-05 -8.449010471786292e-03 1.033460457828208e-03
1.149631549335357e-05 -1.105088337589371e-02 8.520627751674958e-04
7.487092686384195e-06 -1.106207667895056e-02 1.119476449153891e-03
1.856157933348522e-05 -1.105611297610533e-02 1.387282016457595e-03
2.256048092454660e-05 -1.103852630014021e-02 1.118290580047758e-03
2.019927952962363e-05 -9.714998441518246e-03 8.214171613393111e-04
6.704710647548620e-06 -9.742576868925854e-03 8.227789234263959e-04
1.083566970657389e-05 -9.748548785090861e-03 1.338284696995993e-03
3.262089046366930e-05 -9.720980732666532e-03 1.337598924025135e-03
2.641297514323918e-05 -9.717672116032552e-03 1.079076359848423e-03
8.769164235674907e-06 -9.745245432877615e-03 1.080279875174036e-03
1.345584024352828e-05 -9.732231873925388e-03 8.225124664462684e-04
2.172782239019694e-05 -9.738205346621780e-03 1.338420219786305e-03
2.013490499273019e-05 -8.468727818082335e-03 1.034545851377075e-03
1.502827089600402e-05 -1.105323095713334e-02 1.119366949270267e-03
1.759146079480252e-05 -9.734902063935765e-03 1.080169354099131e-03
7.682384182088528e-06 -8.477581521393059e-03 7.882749764599785e-04
-7.781703159938843e-06 -8.477560020464599e-03 7.882737437098430e-04
-1.251434003507890e-05 -8.484216128054726e-03 1.281482728323367e-03
1.240675231871113e-05 -8.484235604155406e-03 1.281488899989652e-03
5.722190033733657e-06 -1.105973084325011e-02 8.523264874109775e-04
-5.841230728060830e-06 -1.105971545373502e-02 8.523402652674462e-04
-9.384526920896957e-06 -1.106494101707022e-02 1.387162061087096e-03
9.254788571876101e-06 -1.106495711672409e-02 1.387147914990358e-03
-5.032571488490100e-08 -8.481521222940134e-03 7.881933296052249e-04
-1.014699174378925e-05 -8.480534272043603e-03 1.034641862345483e-03
-5.478721812424840e-08 -8.488167599339017e-03 1.281174325869104e-03
1.004403153470798e-05 -8.480554811876666e-03 1.034645372219078e-03
-5.745420926916166e-08 -1.106268548571252e-02 8.522593915640174e-04
-7.611534593870994e-06 -1.106206082989204e-02 1.119489779189952e-03
-6.293961731111858e-08 -1.106791177989573e-02 1.386848667441266e-03
7.487092686384195e-06 -1.106207667895056e-02 1.119476449153891e-03
6.704710647548620e-06 -9.742576868925854e-03 8.227789234263959e-04
-6.814922168038167e-06 -9.742560971964045e-03 8.227844320880106e-04
-1.095659636619240e-05 -9.748532554369905e-03 1.338291736485192e-03
1.083566970657389e-05 -9.748548785090861e-03 1.338284696995993e-03
8.769164235674907e-06 -9.745245432877615e-03 1.080279875174036e-03
-8.884804941469905e-06 -9.745229186985532e-03 1.080285959617257e-03
-5.268493180898448e-08 -9.746023282833971e-03 8.227063170501565e-04
-5.824430596688787e-08 -9.751996152773621e-03 1.337979490835265e-03
-5.221015210250039e-08 -8.484490585690133e-03 1.034447786994964e-03
-6.039528375882362e-08 -1.106503084380056e-02 1.119292814269996e-03
-5.567189084784549e-08 -9.748691411135178e-03 1.080091038528343e-03
-7.781703159938843e-06 -8.477560020464599e-03 7.882737437098430e-04
-2.321249680224123e-05 -8.445995342118763e-03 7.869524905829005e-04
-3.741747861547688e-05 -8.452644799605958e-03 1.280816477044961e-03
-1.251434003507890e-05 -8.484216128054726e-03 1.281482728323367e-03
-5.841230728060830e-06 -1.105971545373502e-02 8.523402652674462e-04
-1.739157437902233e-05 -1.103611443922695e-02 8.510043642796694e-04
-2.799160971143302e-05 -1.104135473393949e-02 1.386496732008487e-03
-9.384526920896957e-06 -1.106494101707022e-02 1.387162061087096e-03
-1.550475718006154e-05 -8.465713023634726e-03 7.880241527202592e-04
-3.031462320398291e-05 -8.448964986373559e-03 1.033468847724002e-03
-2.496940440868555e-05 -8.472376693683411e-03 1.281626110874600e-03
-1.014699174378925e-05 -8.480534272043603e-03 1.034641862345483e-03
-1.162173796914425e-05 -1.105084901550928e-02 8.520837192598140e-04
-2.269431938869307e-05 -1.103846589676895e-02 1.118309827395287e-03
-1.869805604892355e-05 -1.105607770837550e-02 1.387305585939089e-03
-7.611534593870994e-06 -1.106206082989204e-02 1.119489779189952e-03
-6.814922168038167e-06 -9.742560971964045e-03 8.227844320880106e-04
-2.032250207831965e-05 -9.714938398297126e-03 8.214419524997765e-04
-3.275683875880920e-05 -9.720920972506956e-03 1.337622287598758e-03
-1.095659636619240e-05 -9.748532554369905e-03 1.338291736485192e-03
-8.884804941469905e-06 -9.745229186985532e-03 1.080285959617257e-03
-2.654173505829368e-05 -9.717612129732925e-03 1.079099729798357e-03
-1.357414617794103e-05 -9.732196991917845e-03 8.225255500634033e-04
-2.185694250638055e-05 -9.738170118180692e-03 1.338434860041211e-03
-2.023592538090011e-05 -8.468690771937829e-03 1.034543561509030e-03
-1.515871328262489e-05 -1.105319604496738e-02 1.119388423652226e-03
-1.771467822701172e-05 -9.734866759995757e-03 1.080182802140640e-03
-3.896394236664161e-06 -1.103201986012269e-02 -2.148989781219508e-04
-1.322814952972390e-06 -1.105559961008962e-02 -2.133409143209802e-04
2.198559077725233e-06 -1.105661413174534e-02 3.191346799951484e-04
6.664851725405146e-06 -1.103305587434295e-02 3.179344888009905e-04
-2.478251801985612e-06 -1.379988416038574e-02 -2.290198708561273e-04
-8.807983595293174e-07 -1.381571598715451e-02 -2.276478829338136e-04
1.490535099052740e-06 -1.381659890681369e-02 3.340661181713514e-04
4.552877150594715e-06 -1.380076493065382e-02 3.328829368306847e-04
-2.607509848315891e-06 -1.104673695246257e-02 -2.138779521923481e-04
4.381531101615422e-07 -1.105584141291097e-02 5.286448255626949e-05
4.438209965311989e-06 -1.104776114576247e-02 3.187127969252882e-04
1.375438856057129e-06 -1.103227861496571e-02 5.162880388603371e-05
-1.689344815806040e-06 -1.380974486478165e-02 -2.282178869512587e-04
3.062396991653705e-07 -1.381597872418546e-02 5.317657426428026e-05
3.033070385111519e-06 -1.381063399048513e-02 3.336277881181708e-04
1.034869902271640e-06 -1.380014368159374e-02 5.200477816240869e-05
-3.160679778859158e-06 -1.239774867578563e-02 -2.226003858283117e-04
-1.101695502311759e-06 -1.241734632735849e-02 -2.212140610146979e-04
1.830283017450924e-06 -1.241838837125149e-02 3.275051518296003e-04
5.592009379926171e-06 -1.239879457821799e-02 3.263604728332494e-04
1.207527952592324e-06 -1.239805794632935e-02 5.198394982718725e-05
3.647168091750339e-07 -1.241765068976081e-02 5.312375058771056e-05
-2.141411240856738e-06 -1.240996557898333e-02 -2.217211255457803e-04
3.714377691428170e-06 -1.241101132384768e-02 3.270902684485244e-04
9.133666905017585e-07 -1.104698416355861e-02 5.238948430502183e-05
6.733155919987514e-07 -1.381000942092654e-02 5.268088897088648e-05
7.851223200746943e-07 -1.241027146259805e-02 5.266353481047915e-05
-1.322814952972390e-06 -1.105559961008962e-02 -2.133409143209802e-04
1.226288820273712e-06 -1.105558557301018e-02 -2.132871098030030e-04
-2.306425775755861e-06 -1.105660080786398e-02 3.191558828567109e-04
2.198559077725233e-06 -1.105661413174534e-02 3.191346799951484e-04
-8.807983595293174e-07 -1.381571598715451e-02 -2.276478829338136e-04
7.665286531711911e-07 -1.381570631843339e-02 -2.275962933885884e-04
-1.605366369431819e-06 -1.381658843937299e-02 3.340833779588308e-04
1.490535099052740e-06 -1.381659890681369e-02 3.340661181713514e-04
-4.423893524030492e-08 -1.105856382095507e-02 -2.131799412703606e-04
-5.403244681971148e-07 -1.105582866153823e-02 5.289700845400806e-05
-5.076486131181905e-08 -1.105957422240727e-02 3.192618159818597e-04
4.381531101615422e-07 -1.105584141291097e-02 5.286448255626949e-05
-5.978351069154075e-08 -1.381772673565490e-02 -2.274079785106406e-04
-4.210139991657933e-07 -1.381596770199505e-02 5.320513122091666e-05
-6.039004124168585e-08 -1.381860271224210e-02 3.342129678362352e-04
3.062396991653705e-07 -1.381597872418546e-02 5.317657426428026e-05
-1.101695502311759e-06 -1.241734632735849e-02 -2.212140610146979e-04
9.944878131795101e-07 -1.241733185615956e-02 -2.211073911321868e-04
-1.945182107507574e-06 -1.241837370547412e-02 3.275386317129089e-04
1.830283017450924e-06 -1.241838837125149e-02 3.275051518296003e-04
3.647168091750339e-07 -1.241765068976081e-02 5.312375058771056e-05
-4.759532180127677e-07 -1.241763609703302e-02 5.318210065966558e-05
-5.268000403081188e-08 -1.241982404504070e-02 -2.210269102163911e-04