<?xml version="1.0" ?> 
<!-- 
# vtk DataFile Version 3.0
-->
<VTKFile type="UnstructuredGrid" version="0.1" compressor="vtkZLibDataCompressor" byte_order="LittleEndian">
  <UnstructuredGrid>
    <FieldData>
      <DataArray type="Float64" Name="TIME" NumberOfTuples="1" format="ascii">
9.999999999999999e-01 
      </DataArray>
    </FieldData>

    <Piece NumberOfPoints="12" NumberOfCells="2" >
      <Points>
        <DataArray type="Float64" NumberOfComponents="3" format="ascii">
0.000000000000000e+00 0.000000000000000e+00 0.000000000000000e+00
3.136251357985872e+00 4.818614762656632e-02 1.468934927443181e-01
6.242898944157226e+00 1.850687880313079e-01 5.837821022615713e-01
9.291553013196520e+00 3.991342175017891e-01 1.306335192356245e+00
1.225382381978621e+01 6.788687323255745e-01 2.310222126832826e+00
1.510132161860876e+01 1.012758628790228e+00 3.591112269495797e+00
2.745755301667122e+01 3.321163398475345e+00 1.287817577512155e+01
2.951197848522963e+01 3.878916824190181e+00 1.518829908498211e+01
3.144922035768356e+01 4.469695732789321e+00 1.758967069515694e+01
3.326496909367780e+01 5.090755558282579e+00 2.007682957700066e+01
3.495491515285713e+01 5.739351734679770e+00 2.264431470186789e+01
3.651474899486634e+01 6.412739695990708e+00 2.528666504111327e+01
        </DataArray>
      </Points>

      <Cells>
        <DataArray type="Int32" Name="connectivity" format="ascii">
0 1 2 3 4 5 6 7 8 9 10 11 
        </DataArray>
        <DataArray type="Int32" Name="offsets" format="ascii">
6 12 
        </DataArray>
        <DataArray type="UInt8" Name="types" format="ascii">
4 4 
        </DataArray>
      </Cells>

  <PointData>
        <DataArray type="Float64" Name="base_vector_1" NumberOfComponents="3" format="ascii">
1.000000000000000e+00 -1.387778780781446e-17 -4.336808689942018e-19
9.953085095279084e-01 2.981242215073367e-02 9.204450199137379e-02
9.812829809161792e-01 5.634485502076003e-02 1.841438803678993e-01
9.580697319948447e-01 7.932050561991862e-02 2.753373313292751e-01
9.259109291951461e-01 9.849968620222030e-02 3.646735019370689e-01
8.851420612086222e-01 1.136823147484922e-01 4.512204148670321e-01
6.721782587712546e-01 1.720016032180860e-01 7.201332077648221e-01
6.356566931021135e-01 1.829286492587294e-01 7.499851183822664e-01
5.976222278846620e-01 1.930170347509615e-01 7.781979806155497e-01
5.581669931751456e-01 2.022423228184512e-01 8.047034550633013e-01
5.173865605287886e-01 2.105821672469511e-01 8.294373380923765e-01
4.753797114988992e-01 2.180163666130448e-01 8.523397173569174e-01
        </DataArray>
        <DataArray type="Float64" Name="base_vector_2" NumberOfComponents="3" format="ascii">
1.387778780781446e-17 1.000000000000000e+00 1.734723475976807e-18
-3.278140077096169e-02 9.989843361772807e-01 3.091400711540647e-02
-6.818979637251955e-02 9.959479403687016e-01 5.863319662115882e-02
-1.058557975465022e-01 9.909224890164227e-01 8.286839498440736e-02
-1.453864631275288e-01 9.839604088886001e-01 1.033667745411773e-01
-1.863693993037388e-01 9.751343301502008e-01 1.199144910579316e-01
-3.517915879626042e-01 9.300310995895051e-01 1.062300919470813e-01
-3.748953029428673e-01 9.224148178257499e-01 9.275998968771221e-02
-3.972143835065410e-01 9.143839331640604e-01 7.824804347037465e-02
-4.186947666311554e-01 9.059578986413431e-01 6.272940526614523e-02
-4.392844208527703e-01 8.971571244574013e-01 4.624166553416223e-02
-4.589334723006566e-01 8.880029285357531e-01 2.882476216707619e-02
        </DataArray>
        <DataArray type="Float64" Name="base_vector_3" NumberOfComponents="3" format="ascii">
4.336808689942018e-19 -1.734723475976807e-18 1.000000000000000e+00
-9.102939429012566e-02 -3.378632205411317e-02 9.952749036408125e-01
-1.800940394208870e-01 -7.009249166658782e-02 9.811489079528333e-01
-2.662647906898704e-01 -1.085397537757400e-01 9.577693788638167e-01
-3.486426932207944e-01 -1.487270169062871e-01 9.253802174813918e-01
-4.263683600861060e-01 -1.902350374561531e-01 8.843193156555729e-01
-6.514745329435323e-01 -3.247423629382901e-01 6.856554022533932e-01
-6.748289267257749e-01 -3.401294064556393e-01 6.549182441482855e-01
-6.964685249698594e-01 -3.558742011826218e-01 6.231253057443095e-01
-7.163409105485318e-01 -3.719386088460828e-01 5.903535983833259e-01
-7.343979470152653e-01 -3.882837169814158e-01 5.566825042579112e-01
-7.505958952041276e-01 -4.048699331893794e-01 5.221935841256016e-01
        </DataArray>
        <DataArray type="Float64" Name="displacement" NumberOfComponents="3" format="ascii">
0.000000000000000e+00 0.000000000000000e+00 0.000000000000000e+00
-4.818786012625864e-03 -1.222638133668442e-03 1.468934927443181e-01
-3.614135345444947e-02 -1.240420686884533e-02 5.837821022615713e-01
-1.192670164313938e-01 -4.481518770678788e-02 1.306335192356245e+00
-2.794950890493819e-01 -1.097260621487531e-01 2.310222126832826e+00
-5.421248854143332e-01 -2.184073116959988e-01 3.591112269495797e+00
-3.444146420823522e+00 -1.573184972009297e+00 1.287817577512155e+01
-4.361788026383699e+00 -2.033066148973260e+00 1.518829908498211e+01
-5.363178759580350e+00 -2.552790776614565e+00 1.758967069515694e+01
-6.449764145823416e+00 -3.133917107090209e+00 2.007682957700066e+01
-7.622989710522766e+00 -3.778003392557189e+00 2.264431470186789e+01
-8.884300979088323e+00 -4.486607885172503e+00 2.528666504111327e+01
        </DataArray>
  </PointData>
  <CellData>
        <DataArray type="Float64" Name="axial_strain_GPs" NumberOfComponents="3" format="ascii">
0.000000000000000e+00 1.379481869312471e-05 2.707322489203801e-05
4.320799246571028e-05 4.750009517051623e-05 5.114038304121493e-05
        </DataArray>
        <DataArray type="Float64" Name="cross_section_radius" format="ascii">
5.707319930889453e-01
5.707319930889453e-01
        </DataArray>
        <DataArray type="Float64" Name="curvature_2_GPs" NumberOfComponents="2" format="ascii">
-2.918791946273335e-02 -2.918791946273336e-02
-1.292738833616014e-02 -1.292738833616014e-02
        </DataArray>
        <DataArray type="Float64" Name="curvature_3_GPs" NumberOfComponents="2" format="ascii">
-2.052626444707002e-05 -2.052626444706829e-05
-1.605687504549190e-03 -1.605687504549190e-03
        </DataArray>
        <DataArray type="Float64" Name="element_gid" format="ascii">
0.000000000000000e+00
2.000000000000000e+00
        </DataArray>
        <DataArray type="Float64" Name="element_owner" format="ascii">
0.000000000000000e+00
0.000000000000000e+00
        </DataArray>
        <DataArray type="Float64" Name="material_axial_force_GPs" NumberOfComponents="3" format="ascii">
0.000000000000000e+00 1.379481869312471e+02 2.707322489203801e+02
4.320799246571028e+02 4.750009517051623e+02 5.114038304121493e+02
        </DataArray>
        <DataArray type="Float64" Name="material_bending_moment_2_GPs" NumberOfComponents="2" format="ascii">
-2.432326621894446e+04 -2.432326621894447e+04
-1.077282361346679e+04 -1.077282361346678e+04
        </DataArray>
        <DataArray type="Float64" Name="material_bending_moment_3_GPs" NumberOfComponents="2" format="ascii">
-1.710522037255835e+01 -1.710522037255690e+01
-1.338072920457658e+03 -1.338072920457658e+03
        </DataArray>
        <DataArray type="Float64" Name="material_shear_force_2_GPs" NumberOfComponents="3" format="ascii">
1.156492725659541e-10 4.272178866761868e+01 7.194869463472583e+01
6.373805516868975e+01 4.236736054633386e+01 1.729485730087311e+01
        </DataArray>
        <DataArray type="Float64" Name="material_shear_force_3_GPs" NumberOfComponents="3" format="ascii">
6.000000000001176e+02 5.823616973118136e+02 5.305915893938825e+02
4.113932413546869e+02 3.641141340845107e+02 3.133161504770277e+02
        </DataArray>
        <DataArray type="Float64" Name="material_torque_GPs" NumberOfComponents="2" format="ascii">
7.251678305127054e+03 7.251678305127055e+03
1.975443862587715e+03 1.975443862587715e+03
        </DataArray>
        <DataArray type="Float64" Name="ref_length" format="ascii">
1.570794997726973e+01
1.570794997726972e+01
        </DataArray>
        <DataArray type="Float64" Name="shear_strain_2_GPs" NumberOfComponents="3" format="ascii">
2.775582541582898e-17 1.025322928022848e-05 1.726768671233420e-05
1.529713324048554e-05 1.016816653112013e-05 4.150765752209545e-06
        </DataArray>
        <DataArray type="Float64" Name="shear_strain_3_GPs" NumberOfComponents="3" format="ascii">
1.440000000000282e-04 1.397668073548353e-04 1.273419814545318e-04
9.873437792512485e-05 8.738739218028257e-05 7.519587611448664e-05
        </DataArray>
        <DataArray type="Float64" Name="twist_GPs" NumberOfComponents="2" format="ascii">
1.031533187073550e-02 1.031533187073550e-02
2.810019719185939e-03 2.810019719185939e-03
        </DataArray>
      </CellData>

    </Piece>
  </UnstructuredGrid>
</VTKFile>
