<?xml version="1.0" ?> 
<!-- 
# vtk DataFile Version 3.0
-->
<VTKFile type="UnstructuredGrid" version="0.1" compressor="vtkZLibDataCompressor" byte_order="LittleEndian">
  <UnstructuredGrid>
    <FieldData>
      <DataArray type="Float64" Name="TIME" NumberOfTuples="1" format="ascii">
1.000000000000000e+00 
      </DataArray>
    </FieldData>

    <Piece NumberOfPoints="324" NumberOfCells="12" >
      <Points>
        <DataArray type="Float64" NumberOfComponents="3" format="ascii">
-5.000000000000000e-01 -5.000000000000000e-01 -1.000000000000000e-01
0.000000000000000e+00 -5.000000000000000e-01 -1.000000000000000e-01
0.000000000000000e+00 -1.666666666665000e-01 -1.000000000000000e-01
-5.000000000000000e-01 -1.666666666665000e-01 -1.000000000000000e-01
-5.000000000000000e-01 -5.000000000000000e-01 1.500000000000000e-01
0.000000000000000e+00 -5.000000000000000e-01 1.500000000000000e-01
0.000000000000000e+00 -1.666666666665000e-01 1.500000000000000e-01
-5.000000000000000e-01 -1.666666666665000e-01 1.500000000000000e-01
-2.500000000000000e-01 -5.000000000000000e-01 -9.999999999999999e-02
0.000000000000000e+00 -3.333333333331250e-01 -1.000000000000000e-01
-2.500000000000000e-01 -1.666666666665000e-01 -1.000000000000000e-01
-5.000000000000000e-01 -3.333333333331250e-01 -9.999999999999999e-02
-2.500000000000000e-01 -5.000000000000000e-01 1.500000000000000e-01
0.000000000000000e+00 -3.333333333331250e-01 1.500000000000000e-01
-2.500000000000000e-01 -1.666666666665000e-01 1.500000000000000e-01
-5.000000000000000e-01 -3.333333333331250e-01 1.500000000000000e-01
-5.000000000000000e-01 -5.000000000000000e-01 2.500000000000000e-02
0.000000000000000e+00 -5.000000000000000e-01 2.500000000000000e-02
0.000000000000000e+00 -1.666666666665000e-01 2.500000000000000e-02
-5.000000000000000e-01 -1.666666666665000e-01 2.500000000000000e-02
-5.000000000000000e-01 -3.333333333331250e-01 2.500000000000000e-02
0.000000000000000e+00 -3.333333333331250e-01 2.500000000000000e-02
-2.500000000000000e-01 -5.000000000000000e-01 2.500000000000000e-02
-2.500000000000000e-01 -1.666666666665001e-01 2.500000000000000e-02
-2.500000000000000e-01 -3.333333333331250e-01 -9.999999999999999e-02
-2.500000000000000e-01 -3.333333333331250e-01 1.500000000000000e-01
-2.500000000000000e-01 -3.333333333331250e-01 2.500000000000000e-02
0.000000000000000e+00 -5.000000000000000e-01 -1.000000000000000e-01
5.000000000000000e-01 -5.000000000000000e-01 -1.000000000000000e-01
5.000000000000000e-01 -1.666666666665000e-01 -1.000000000000000e-01
0.000000000000000e+00 -1.666666666665000e-01 -1.000000000000000e-01
0.000000000000000e+00 -5.000000000000000e-01 1.500000000000000e-01
5.000000000000000e-01 -5.000000000000000e-01 1.500000000000000e-01
5.000000000000000e-01 -1.666666666665000e-01 1.500000000000000e-01
0.000000000000000e+00 -1.666666666665000e-01 1.500000000000000e-01
2.500000000000000e-01 -5.000000000000000e-01 -1.000000000000000e-01
5.000000000000000e-01 -3.333333333331250e-01 -9.999999999999999e-02
2.500000000000000e-01 -1.666666666665000e-01 -9.999999999999999e-02
0.000000000000000e+00 -3.333333333331250e-01 -1.000000000000000e-01
2.500000000000000e-01 -5.000000000000000e-01 1.500000000000000e-01
5.000000000000000e-01 -3.333333333331250e-01 1.500000000000000e-01
2.500000000000000e-01 -1.666666666665000e-01 1.500000000000000e-01
0.000000000000000e+00 -3.333333333331250e-01 1.500000000000000e-01
0.000000000000000e+00 -5.000000000000000e-01 2.500000000000000e-02
5.000000000000000e-01 -5.000000000000000e-01 2.500000000000000e-02
5.000000000000000e-01 -1.666666666665000e-01 2.500000000000000e-02
0.000000000000000e+00 -1.666666666665000e-01 2.500000000000000e-02
0.000000000000000e+00 -3.333333333331250e-01 2.500000000000000e-02
5.000000000000000e-01 -3.333333333331250e-01 2.500000000000000e-02
2.500000000000000e-01 -5.000000000000000e-01 2.500000000000000e-02
2.500000000000000e-01 -1.666666666665000e-01 2.500000000000000e-02
2.500000000000000e-01 -3.333333333331250e-01 -9.999999999999999e-02
2.500000000000000e-01 -3.333333333331251e-01 1.500000000000000e-01
2.500000000000000e-01 -3.333333333331250e-01 2.500000000000000e-02
-5.000000000000000e-01 -1.666666666665000e-01 -1.000000000000000e-01
0.000000000000000e+00 -1.666666666665000e-01 -1.000000000000000e-01
0.000000000000000e+00 1.666666666665000e-01 -9.999999999999999e-02
-5.000000000000000e-01 1.666666666665000e-01 -1.000000000000000e-01
-5.000000000000000e-01 -1.666666666665000e-01 1.500000000000000e-01
0.000000000000000e+00 -1.666666666665000e-01 1.500000000000000e-01
0.000000000000000e+00 1.666666666665000e-01 1.500000000000000e-01
-5.000000000000000e-01 1.666666666665000e-01 1.500000000000000e-01
-2.500000000000000e-01 -1.666666666665000e-01 -1.000000000000000e-01
0.000000000000000e+00 2.775557561562891e-17 -1.000000000000000e-01
-2.500000000000000e-01 1.666666666665000e-01 -9.999999999999999e-02
-5.000000000000001e-01 2.775557561562891e-17 -1.000000000000000e-01
-2.500000000000000e-01 -1.666666666665000e-01 1.500000000000000e-01
0.000000000000000e+00 3.469446951953614e-17 1.500000000000000e-01
-2.500000000000000e-01 1.666666666665000e-01 1.500000000000000e-01
-5.000000000000001e-01 2.775557561562891e-17 1.500000000000000e-01
-5.000000000000000e-01 -1.666666666665000e-01 2.500000000000000e-02
0.000000000000000e+00 -1.666666666665000e-01 2.500000000000000e-02
0.000000000000000e+00 1.666666666665000e-01 2.500000000000000e-02
-5.000000000000000e-01 1.666666666665000e-01 2.500000000000000e-02
-5.000000000000001e-01 2.428612866367530e-17 2.500000000000000e-02
0.000000000000000e+00 2.515349040166370e-17 2.500000000000000e-02
-2.500000000000000e-01 -1.666666666665001e-01 2.500000000000000e-02
-2.500000000000000e-01 1.666666666665000e-01 2.500000000000000e-02
-2.500000000000000e-01 2.428612866367530e-17 -9.999999999999999e-02
-2.500000000000000e-01 2.602085213965211e-17 1.500000000000000e-01
-2.500000000000000e-01 2.211772431870429e-17 2.500000000000000e-02
0.000000000000000e+00 -1.666666666665000e-01 -1.000000000000000e-01
5.000000000000000e-01 -1.666666666665000e-01 -1.000000000000000e-01
5.000000000000000e-01 1.666666666665000e-01 -1.000000000000000e-01
0.000000000000000e+00 1.666666666665000e-01 -9.999999999999999e-02
0.000000000000000e+00 -1.666666666665000e-01 1.500000000000000e-01
5.000000000000000e-01 -1.666666666665000e-01 1.500000000000000e-01
5.000000000000000e-01 1.666666666665000e-01 1.500000000000000e-01
0.000000000000000e+00 1.666666666665000e-01 1.500000000000000e-01
2.500000000000000e-01 -1.666666666665000e-01 -9.999999999999999e-02
5.000000000000001e-01 2.775557561562891e-17 -1.000000000000000e-01
2.500000000000000e-01 1.666666666665000e-01 -9.999999999999999e-02
0.000000000000000e+00 2.775557561562891e-17 -1.000000000000000e-01
2.500000000000000e-01 -1.666666666665000e-01 1.500000000000000e-01
5.000000000000001e-01 2.775557561562891e-17 1.500000000000000e-01
2.500000000000000e-01 1.666666666665000e-01 1.500000000000000e-01
0.000000000000000e+00 3.469446951953614e-17 1.500000000000000e-01
0.000000000000000e+00 -1.666666666665000e-01 2.500000000000000e-02
5.000000000000000e-01 -1.666666666665000e-01 2.500000000000000e-02
5.000000000000000e-01 1.666666666665000e-01 2.500000000000000e-02
0.000000000000000e+00 1.666666666665000e-01 2.500000000000000e-02
0.000000000000000e+00 2.515349040166370e-17 2.500000000000000e-02
5.000000000000001e-01 2.428612866367530e-17 2.500000000000000e-02
2.500000000000000e-01 -1.666666666665000e-01 2.500000000000000e-02
2.500000000000000e-01 1.666666666665000e-01 2.500000000000000e-02
2.500000000000000e-01 2.081668171172169e-17 -1.000000000000000e-01
2.500000000000000e-01 2.428612866367530e-17 1.500000000000000e-01
2.500000000000000e-01 2.341876692568690e-17 2.500000000000000e-02
-5.000000000000000e-01 1.666666666665000e-01 -1.000000000000000e-01
0.000000000000000e+00 1.666666666665000e-01 -9.999999999999999e-02
0.000000000000000e+00 5.000000000000000e-01 -1.000000000000000e-01
-5.000000000000000e-01 5.000000000000000e-01 -1.000000000000000e-01
-5.000000000000000e-01 1.666666666665000e-01 1.500000000000000e-01
0.000000000000000e+00 1.666666666665000e-01 1.500000000000000e-01
0.000000000000000e+00 5.000000000000000e-01 1.500000000000000e-01
-5.000000000000000e-01 5.000000000000000e-01 1.500000000000000e-01
-2.500000000000000e-01 1.666666666665000e-01 -9.999999999999999e-02
0.000000000000000e+00 3.333333333331250e-01 -1.000000000000000e-01
-2.500000000000000e-01 5.000000000000000e-01 -9.999999999999999e-02
-5.000000000000000e-01 3.333333333331250e-01 -1.000000000000000e-01
-2.500000000000000e-01 1.666666666665000e-01 1.500000000000000e-01
0.000000000000000e+00 3.333333333331250e-01 1.500000000000000e-01
-2.500000000000000e-01 5.000000000000000e-01 1.500000000000000e-01
-5.000000000000000e-01 3.333333333331250e-01 1.500000000000000e-01
-5.000000000000000e-01 1.666666666665000e-01 2.500000000000000e-02
0.000000000000000e+00 1.666666666665000e-01 2.500000000000000e-02
0.000000000000000e+00 5.000000000000000e-01 2.500000000000000e-02
-5.000000000000000e-01 5.000000000000000e-01 2.500000000000000e-02
-5.000000000000000e-01 3.333333333331250e-01 2.500000000000000e-02
0.000000000000000e+00 3.333333333331250e-01 2.499999999999999e-02
-2.500000000000000e-01 1.666666666665000e-01 2.500000000000000e-02
-2.500000000000000e-01 5.000000000000000e-01 2.500000000000000e-02
-2.500000000000000e-01 3.333333333331250e-01 -9.999999999999999e-02
-2.499999999999999e-01 3.333333333331250e-01 1.500000000000000e-01
-2.500000000000000e-01 3.333333333331249e-01 2.500000000000000e-02
0.000000000000000e+00 1.666666666665000e-01 -9.999999999999999e-02
5.000000000000000e-01 1.666666666665000e-01 -1.000000000000000e-01
5.000000000000000e-01 5.000000000000000e-01 -1.000000000000000e-01
0.000000000000000e+00 5.000000000000000e-01 -1.000000000000000e-01
0.000000000000000e+00 1.666666666665000e-01 1.500000000000000e-01
5.000000000000000e-01 1.666666666665000e-01 1.500000000000000e-01
[...]
  <PointData>
        <DataArray type="Float64" Name="displacement" NumberOfComponents="3" format="ascii">
0.000000000000000e+00 0.000000000000000e+00 0.000000000000000e+00
0.000000000000000e+00 0.000000000000000e+00 0.000000000000000e+00
0.000000000000000e+00 0.000000000000000e+00 0.000000000000000e+00
0.000000000000000e+00 0.000000000000000e+00 0.000000000000000e+00
2.014281292180473e-02 2.041489066623609e-02 4.173188610276873e-02
5.204170427930421e-18 2.155620710586200e-02 3.700715503832060e-02
1.084202172485504e-18 5.429144740624983e-03 3.230087484289305e-02
2.107684111881317e-02 5.362708048962698e-03 3.703835224886797e-02
0.000000000000000e+00 0.000000000000000e+00 0.000000000000000e+00
0.000000000000000e+00 0.000000000000000e+00 0.000000000000000e+00
0.000000000000000e+00 0.000000000000000e+00 0.000000000000000e+00
0.000000000000000e+00 0.000000000000000e+00 0.000000000000000e+00
8.339645159767907e-03 2.127087799595554e-02 3.818833780443263e-02
4.391018798566293e-18 1.217548270224674e-02 3.356404419553870e-02
8.496645229661412e-03 5.412535567709410e-03 3.348524419438677e-02
2.054080364428853e-02 1.180710772776240e-02 3.831549745847619e-02
1.380349143309897e-02 1.392420454989462e-02 2.193183383920524e-02
-4.336808689942018e-18 1.469526571021545e-02 1.848278967848611e-02
1.788933584601082e-18 2.796486312333494e-03 1.460894015224376e-02
1.437626140627802e-02 2.756594808513026e-03 1.812609048363941e-02
1.392707172342381e-02 6.926794648114944e-03 1.885857487533292e-02
1.910906329005702e-18 7.169424317970735e-03 1.533281219622227e-02
4.555776649389201e-03 1.450250042013527e-02 1.934505071866589e-02
4.655256358888669e-03 2.786513436378374e-03 1.548822773509267e-02
0.000000000000000e+00 0.000000000000000e+00 0.000000000000000e+00
8.313736408373705e-03 1.208338895862566e-02 3.475190751127308e-02
4.528407585842794e-03 7.108766900506789e-03 1.621425286599994e-02
0.000000000000000e+00 0.000000000000000e+00 0.000000000000000e+00
0.000000000000000e+00 0.000000000000000e+00 0.000000000000000e+00
0.000000000000000e+00 0.000000000000000e+00 0.000000000000000e+00
0.000000000000000e+00 0.000000000000000e+00 0.000000000000000e+00
5.204170427930421e-18 2.155620710586200e-02 3.700715503832060e-02
-2.014281292180470e-02 2.041489066623615e-02 4.173188610276869e-02
-2.107684111881320e-02 5.362708048962694e-03 3.703835224886795e-02
1.084202172485504e-18 5.429144740624983e-03 3.230087484289305e-02
0.000000000000000e+00 0.000000000000000e+00 0.000000000000000e+00
0.000000000000000e+00 0.000000000000000e+00 0.000000000000000e+00
0.000000000000000e+00 0.000000000000000e+00 0.000000000000000e+00
0.000000000000000e+00 0.000000000000000e+00 0.000000000000000e+00
-8.339645159767891e-03 2.127087799595553e-02 3.818833780443263e-02
-2.054080364428854e-02 1.180710772776242e-02 3.831549745847616e-02
-8.496645229661419e-03 5.412535567709412e-03 3.348524419438677e-02
4.391018798566293e-18 1.217548270224674e-02 3.356404419553870e-02
-4.336808689942018e-18 1.469526571021545e-02 1.848278967848611e-02
-1.380349143309897e-02 1.392420454989469e-02 2.193183383920522e-02
-1.437626140627806e-02 2.756594808513018e-03 1.812609048363941e-02
1.788933584601082e-18 2.796486312333494e-03 1.460894015224376e-02
1.910906329005702e-18 7.169424317970735e-03 1.533281219622227e-02
-1.392707172342384e-02 6.926794648114951e-03 1.885857487533291e-02
-4.555776649389209e-03 1.450250042013523e-02 1.934505071866589e-02
-4.655256358888677e-03 2.786513436378379e-03 1.548822773509267e-02
0.000000000000000e+00 0.000000000000000e+00 0.000000000000000e+00
-8.313736408373703e-03 1.208338895862566e-02 3.475190751127306e-02
-4.528407585842800e-03 7.108766900506787e-03 1.621425286599993e-02
0.000000000000000e+00 0.000000000000000e+00 0.000000000000000e+00
0.000000000000000e+00 0.000000000000000e+00 0.000000000000000e+00
0.000000000000000e+00 0.000000000000000e+00 0.000000000000000e+00
0.000000000000000e+00 0.000000000000000e+00 0.000000000000000e+00
2.107684111881317e-02 5.362708048962698e-03 3.703835224886797e-02
1.084202172485504e-18 5.429144740624983e-03 3.230087484289305e-02
6.505213034913027e-19 -5.429144740624998e-03 3.230087484289304e-02
2.107684111881317e-02 -5.362708048962711e-03 3.703835224886796e-02
0.000000000000000e+00 0.000000000000000e+00 0.000000000000000e+00
0.000000000000000e+00 0.000000000000000e+00 0.000000000000000e+00
0.000000000000000e+00 0.000000000000000e+00 0.000000000000000e+00
0.000000000000000e+00 0.000000000000000e+00 0.000000000000000e+00
8.496645229661412e-03 5.412535567709410e-03 3.348524419438677e-02
-1.192622389734055e-18 -1.181780368009200e-17 3.221427553910428e-02
8.496645229661419e-03 -5.412535567709422e-03 3.348524419438677e-02
2.137937154408570e-02 -1.084202172485504e-17 3.693459050273495e-02
1.437626140627802e-02 2.756594808513026e-03 1.812609048363941e-02
1.788933584601082e-18 2.796486312333494e-03 1.460894015224376e-02
3.577867169202165e-18 -2.796486312333506e-03 1.460894015224375e-02
1.437626140627803e-02 -2.756594808513038e-03 1.812609048363942e-02
1.468225859583748e-02 -9.324138683375338e-18 1.834504193083736e-02
6.776263578034403e-19 -8.375461782450522e-18 1.485353048982583e-02
4.655256358888669e-03 2.786513436378374e-03 1.548822773509267e-02
4.655256358888679e-03 -2.786513436378380e-03 1.548822773509267e-02
0.000000000000000e+00 0.000000000000000e+00 0.000000000000000e+00
8.640304033475744e-03 -1.184490873440414e-17 3.339435428001193e-02
4.757235204559681e-03 -8.002767285658630e-18 1.572640835007871e-02
0.000000000000000e+00 0.000000000000000e+00 0.000000000000000e+00
0.000000000000000e+00 0.000000000000000e+00 0.000000000000000e+00
0.000000000000000e+00 0.000000000000000e+00 0.000000000000000e+00
0.000000000000000e+00 0.000000000000000e+00 0.000000000000000e+00
1.084202172485504e-18 5.429144740624983e-03 3.230087484289305e-02
-2.107684111881320e-02 5.362708048962694e-03 3.703835224886795e-02
-2.107684111881320e-02 -5.362708048962702e-03 3.703835224886795e-02
6.505213034913027e-19 -5.429144740624998e-03 3.230087484289304e-02
0.000000000000000e+00 0.000000000000000e+00 0.000000000000000e+00
0.000000000000000e+00 0.000000000000000e+00 0.000000000000000e+00
0.000000000000000e+00 0.000000000000000e+00 0.000000000000000e+00
0.000000000000000e+00 0.000000000000000e+00 0.000000000000000e+00
-8.496645229661419e-03 5.412535567709412e-03 3.348524419438677e-02
-2.137937154408573e-02 -1.279358563532895e-17 3.693459050273493e-02
-8.496645229661422e-03 -5.412535567709429e-03 3.348524419438677e-02
-1.192622389734055e-18 -1.181780368009200e-17 3.221427553910428e-02
1.788933584601082e-18 2.796486312333494e-03 1.460894015224376e-02
-1.437626140627806e-02 2.756594808513018e-03 1.812609048363941e-02
-1.437626140627806e-02 -2.756594808513025e-03 1.812609048363941e-02
3.577867169202165e-18 -2.796486312333506e-03 1.460894015224375e-02
6.776263578034403e-19 -8.375461782450522e-18 1.485353048982583e-02
-1.468225859583752e-02 -8.673617379884035e-18 1.834504193083738e-02
-4.655256358888677e-03 2.786513436378379e-03 1.548822773509267e-02
-4.655256358888682e-03 -2.786513436378394e-03 1.548822773509267e-02
0.000000000000000e+00 0.000000000000000e+00 0.000000000000000e+00
-8.640304033475751e-03 -1.116728237660070e-17 3.339435428001194e-02
-4.757235204559690e-03 -8.917562868693274e-18 1.572640835007871e-02
0.000000000000000e+00 0.000000000000000e+00 0.000000000000000e+00
0.000000000000000e+00 0.000000000000000e+00 0.000000000000000e+00
0.000000000000000e+00 0.000000000000000e+00 0.000000000000000e+00
0.000000000000000e+00 0.000000000000000e+00 0.000000000000000e+00
2.107684111881317e-02 -5.362708048962711e-03 3.703835224886796e-02
6.505213034913027e-19 -5.429144740624998e-03 3.230087484289304e-02
4.336808689942018e-18 -2.155620710586200e-02 3.700715503832058e-02
2.014281292180477e-02 -2.041489066623612e-02 4.173188610276869e-02
0.000000000000000e+00 0.000000000000000e+00 0.000000000000000e+00
0.000000000000000e+00 0.000000000000000e+00 0.000000000000000e+00
0.000000000000000e+00 0.000000000000000e+00 0.000000000000000e+00
0.000000000000000e+00 0.000000000000000e+00 0.000000000000000e+00
8.496645229661419e-03 -5.412535567709422e-03 3.348524419438677e-02
3.794707603699266e-18 -1.217548270224674e-02 3.356404419553869e-02
8.339645159767923e-03 -2.127087799595553e-02 3.818833780443261e-02
2.054080364428855e-02 -1.180710772776241e-02 3.831549745847618e-02
1.437626140627803e-02 -2.756594808513038e-03 1.812609048363942e-02
3.577867169202165e-18 -2.796486312333506e-03 1.460894015224375e-02
-5.529431079676073e-18 -1.469526571021546e-02 1.848278967848609e-02
1.380349143309904e-02 -1.392420454989466e-02 2.193183383920519e-02
1.392707172342384e-02 -6.926794648114957e-03 1.885857487533292e-02
3.876022766635678e-18 -7.169424317970742e-03 1.533281219622226e-02
4.655256358888679e-03 -2.786513436378380e-03 1.548822773509267e-02
4.555776649389229e-03 -1.450250042013527e-02 1.934505071866587e-02
0.000000000000000e+00 0.000000000000000e+00 0.000000000000000e+00
8.313736408373717e-03 -1.208338895862565e-02 3.475190751127306e-02
4.528407585842813e-03 -7.108766900506786e-03 1.621425286599993e-02
0.000000000000000e+00 0.000000000000000e+00 0.000000000000000e+00
0.000000000000000e+00 0.000000000000000e+00 0.000000000000000e+00
0.000000000000000e+00 0.000000000000000e+00 0.000000000000000e+00
0.000000000000000e+00 0.000000000000000e+00 0.000000000000000e+00
6.505213034913027e-19 -5.429144740624998e-03 3.230087484289304e-02
-2.107684111881320e-02 -5.362708048962702e-03 3.703835224886795e-02
-2.014281292180478e-02 -2.041489066623614e-02 4.173188610276871e-02
4.336808689942018e-18 -2.155620710586200e-02 3.700715503832058e-02
0.000000000000000e+00 0.000000000000000e+00 0.000000000000000e+00
0.000000000000000e+00 0.000000000000000e+00 0.000000000000000e+00
0.000000000000000e+00 0.000000000000000e+00 0.000000000000000e+00
0.000000000000000e+00 0.000000000000000e+00 0.000000000000000e+00
-8.496645229661422e-03 -5.412535567709429e-03 3.348524419438677e-02
-2.054080364428857e-02 -1.180710772776240e-02 3.831549745847618e-02
-8.339645159767917e-03 -2.127087799595554e-02 3.818833780443261e-02
3.794707603699266e-18 -1.217548270224674e-02 3.356404419553869e-02
3.577867169202165e-18 -2.796486312333506e-03 1.460894015224375e-02
-1.437626140627806e-02 -2.756594808513025e-03 1.812609048363941e-02
-1.380349143309901e-02 -1.392420454989467e-02 2.193183383920521e-02
-5.529431079676073e-18 -1.469526571021546e-02 1.848278967848609e-02
3.876022766635678e-18 -7.169424317970742e-03 1.533281219622226e-02
-1.392707172342385e-02 -6.926794648114941e-03 1.885857487533290e-02
-4.655256358888682e-03 -2.786513436378394e-03 1.548822773509267e-02
-4.555776649389229e-03 -1.450250042013526e-02 1.934505071866588e-02
0.000000000000000e+00 0.000000000000000e+00 0.000000000000000e+00
-8.313736408373717e-03 -1.208338895862566e-02 3.475190751127306e-02
-4.528407585842812e-03 -7.108766900506804e-03 1.621425286599992e-02
2.014281292180473e-02 2.041489066623609e-02 4.173188610276873e-02
5.204170427930421e-18 2.155620710586200e-02 3.700715503832060e-02
1.084202172485504e-18 5.429144740624983e-03 3.230087484289305e-02
2.107684111881317e-02 5.362708048962698e-03 3.703835224886797e-02
2.457090776255629e-02 2.462224021070997e-02 7.853157122033072e-02
2.255140518769849e-17 2.556143495083020e-02 7.490720249775255e-02
4.987329993433320e-18 8.407511870415055e-03 7.195668959970244e-02
2.525436284842851e-02 8.335406626078476e-03 7.545935094470249e-02
8.339645159767907e-03 2.127087799595554e-02 3.818833780443263e-02
4.391018798566293e-18 1.217548270224674e-02 3.356404419553870e-02
8.496645229661412e-03 5.412535567709410e-03 3.348524419438677e-02
2.054080364428853e-02 1.180710772776240e-02 3.831549745847619e-02
1.244955611391917e-02 2.532663626580012e-02 7.581329467839712e-02
1.404041813368728e-17 1.689974857572638e-02 7.324570090825962e-02
1.258649951946398e-02 8.389485559330912e-03 7.283235493595246e-02
2.489808618241903e-02 1.657481833527559e-02 7.677459829504110e-02
2.255345489024721e-02 2.285369150213700e-02 6.029888812003054e-02
1.767249541151372e-17 2.402940368628511e-02 5.575474350343294e-02
1.355252715606881e-18 7.449108766207747e-03 5.183154451202142e-02
2.355259098404885e-02 7.371318921450641e-03 5.629627562583818e-02
2.310865528861374e-02 1.492757152734756e-02 5.780832088614165e-02
8.172173875109490e-18 1.531873687933097e-02 5.332467932415069e-02
1.106608011874245e-02 2.373547564024808e-02 5.689077965758235e-02
1.123633636546944e-02 7.429661305018469e-03 5.294772729047561e-02
8.313736408373705e-03 1.208338895862566e-02 3.475190751127308e-02
1.243243370176852e-02 1.681851601561368e-02 7.412792525495500e-02
1.105030545215989e-02 1.522094554133512e-02 5.444558971464842e-02
5.204170427930421e-18 2.155620710586200e-02 3.700715503832060e-02
-2.014281292180470e-02 2.041489066623615e-02 4.173188610276869e-02
-2.107684111881320e-02 5.362708048962694e-03 3.703835224886795e-02
1.084202172485504e-18 5.429144740624983e-03 3.230087484289305e-02
2.255140518769849e-17 2.556143495083020e-02 7.490720249775255e-02
-2.457090776255624e-02 2.462224021071004e-02 7.853157122033073e-02
-2.525436284842850e-02 8.335406626078476e-03 7.545935094470246e-02
4.987329993433320e-18 8.407511870415055e-03 7.195668959970244e-02
-8.339645159767891e-03 2.127087799595553e-02 3.818833780443263e-02
-2.054080364428854e-02 1.180710772776242e-02 3.831549745847616e-02
-8.496645229661419e-03 5.412535567709412e-03 3.348524419438677e-02
4.391018798566293e-18 1.217548270224674e-02 3.356404419553870e-02
-1.244955611391913e-02 2.532663626580018e-02 7.581329467839708e-02
-2.489808618241904e-02 1.657481833527562e-02 7.677459829504110e-02
-1.258649951946397e-02 8.389485559330910e-03 7.283235493595246e-02
1.404041813368728e-17 1.689974857572638e-02 7.324570090825962e-02
1.767249541151372e-17 2.402940368628511e-02 5.575474350343294e-02
-2.255345489024713e-02 2.285369150213706e-02 6.029888812003049e-02
-2.355259098404886e-02 7.371318921450641e-03 5.629627562583812e-02
1.355252715606881e-18 7.449108766207747e-03 5.183154451202142e-02
8.172173875109490e-18 1.531873687933097e-02 5.332467932415069e-02
-2.310865528861374e-02 1.492757152734758e-02 5.780832088614161e-02
-1.106608011874241e-02 2.373547564024810e-02 5.689077965758232e-02
-1.123633636546944e-02 7.429661305018470e-03 5.294772729047561e-02
-8.313736408373703e-03 1.208338895862566e-02 3.475190751127306e-02
-1.243243370176850e-02 1.681851601561369e-02 7.412792525495497e-02
-1.105030545215988e-02 1.522094554133512e-02 5.444558971464841e-02
2.107684111881317e-02 5.362708048962698e-03 3.703835224886797e-02
1.084202172485504e-18 5.429144740624983e-03 3.230087484289305e-02
6.505213034913027e-19 -5.429144740624998e-03 3.230087484289304e-02
2.107684111881317e-02 -5.362708048962711e-03 3.703835224886796e-02
2.525436284842851e-02 8.335406626078476e-03 7.545935094470249e-02
4.987329993433320e-18 8.407511870415055e-03 7.195668959970244e-02
5.637851296924623e-18 -8.407511870415073e-03 7.195668959970243e-02
2.525436284842851e-02 -8.335406626078498e-03 7.545935094470249e-02
8.496645229661412e-03 5.412535567709410e-03 3.348524419438677e-02
-1.192622389734055e-18 -1.181780368009200e-17 3.221427553910428e-02
8.496645229661419e-03 -5.412535567709422e-03 3.348524419438677e-02
2.137937154408570e-02 -1.084202172485504e-17 3.693459050273495e-02
1.258649951946398e-02 8.389485559330912e-03 7.283235493595246e-02
6.505213034913027e-19 -1.366094737331736e-17 7.140530651565780e-02
1.258649951946399e-02 -8.389485559330929e-03 7.283235493595244e-02
2.543977574296993e-02 -1.691355389077387e-17 7.491215866327097e-02
2.355259098404885e-02 7.371318921450641e-03 5.629627562583818e-02
1.355252715606881e-18 7.449108766207747e-03 5.183154451202142e-02
-9.215718466126788e-19 -7.449108766207760e-03 5.183154451202140e-02
2.355259098404886e-02 -7.371318921450654e-03 5.629627562583814e-02
2.374674265603356e-02 -1.122149248522497e-17 5.578488348908280e-02
-2.873135757086587e-18 -1.257674520083185e-17 5.131920944774503e-02
1.123633636546944e-02 7.429661305018469e-03 5.294772729047561e-02
1.123633636546945e-02 -7.429661305018482e-03 5.294772729047559e-02
8.640304033475744e-03 -1.184490873440414e-17 3.339435428001193e-02
1.270632948577323e-02 -1.363384231900522e-17 7.228201955256107e-02
1.137980321709724e-02 -1.327470034936939e-17 5.243562795807948e-02
1.084202172485504e-18 5.429144740624983e-03 3.230087484289305e-02
-2.107684111881320e-02 5.362708048962694e-03 3.703835224886795e-02
-2.107684111881320e-02 -5.362708048962702e-03 3.703835224886795e-02
6.505213034913027e-19 -5.429144740624998e-03 3.230087484289304e-02
4.987329993433320e-18 8.407511870415055e-03 7.195668959970244e-02
-2.525436284842850e-02 8.335406626078476e-03 7.545935094470246e-02
-2.525436284842851e-02 -8.335406626078495e-03 7.545935094470248e-02
5.637851296924623e-18 -8.407511870415073e-03 7.195668959970243e-02
-8.496645229661419e-03 5.412535567709412e-03 3.348524419438677e-02
-2.137937154408573e-02 -1.279358563532895e-17 3.693459050273493e-02
-8.496645229661422e-03 -5.412535567709429e-03 3.348524419438677e-02
-1.192622389734055e-18 -1.181780368009200e-17 3.221427553910428e-02
-1.258649951946397e-02 8.389485559330910e-03 7.283235493595246e-02
-2.543977574296991e-02 -2.450296909817240e-17 7.491215866327092e-02
-1.258649951946398e-02 -8.389485559330931e-03 7.283235493595244e-02
6.505213034913027e-19 -1.366094737331736e-17 7.140530651565780e-02
1.355252715606881e-18 7.449108766207747e-03 5.183154451202142e-02
-2.355259098404886e-02 7.371318921450641e-03 5.629627562583812e-02
-2.355259098404886e-02 -7.371318921450654e-03 5.629627562583814e-02
-9.215718466126788e-19 -7.449108766207760e-03 5.183154451202140e-02
-2.873135757086587e-18 -1.257674520083185e-17 5.131920944774503e-02
-2.374674265603356e-02 -1.685934378214959e-17 5.578488348908275e-02
-1.123633636546944e-02 7.429661305018470e-03 5.294772729047561e-02
-1.123633636546945e-02 -7.429661305018483e-03 5.294772729047559e-02
-8.640304033475751e-03 -1.116728237660070e-17 3.339435428001194e-02
-1.270632948577323e-02 -1.729302465114380e-17 7.228201955256107e-02
-1.137980321709725e-02 -1.245477245642723e-17 5.243562795807948e-02
2.107684111881317e-02 -5.362708048962711e-03 3.703835224886796e-02
6.505213034913027e-19 -5.429144740624998e-03 3.230087484289304e-02
4.336808689942018e-18 -2.155620710586200e-02 3.700715503832058e-02
2.014281292180477e-02 -2.041489066623612e-02 4.173188610276869e-02
2.525436284842851e-02 -8.335406626078498e-03 7.545935094470249e-02
5.637851296924623e-18 -8.407511870415073e-03 7.195668959970243e-02
1.170938346284345e-17 -2.556143495083018e-02 7.490720249775255e-02
2.457090776255628e-02 -2.462224021070996e-02 7.853157122033076e-02
8.496645229661419e-03 -5.412535567709422e-03 3.348524419438677e-02
3.794707603699266e-18 -1.217548270224674e-02 3.356404419553869e-02
8.339645159767923e-03 -2.127087799595553e-02 3.818833780443261e-02
2.054080364428855e-02 -1.180710772776241e-02 3.831549745847618e-02
1.258649951946399e-02 -8.389485559330929e-03 7.283235493595244e-02
1.279358563532895e-17 -1.689974857572638e-02 7.324570090825962e-02
1.244955611391916e-02 -2.532663626580013e-02 7.581329467839711e-02
2.489808618241904e-02 -1.657481833527560e-02 7.677459829504113e-02
2.355259098404886e-02 -7.371318921450654e-03 5.629627562583814e-02
-9.215718466126788e-19 -7.449108766207760e-03 5.183154451202140e-02
1.496198998029996e-17 -2.402940368628509e-02 5.575474350343292e-02
2.255345489024718e-02 -2.285369150213700e-02 6.029888812003054e-02
2.310865528861374e-02 -1.492757152734756e-02 5.780832088614162e-02
4.499439015814843e-18 -1.531873687933096e-02 5.332467932415067e-02
1.123633636546945e-02 -7.429661305018482e-03 5.294772729047559e-02
1.106608011874245e-02 -2.373547564024807e-02 5.689077965758233e-02
8.313736408373717e-03 -1.208338895862565e-02 3.475190751127306e-02
1.243243370176853e-02 -1.681851601561368e-02 7.412792525495498e-02
1.105030545215990e-02 -1.522094554133511e-02 5.444558971464843e-02
6.505213034913027e-19 -5.429144740624998e-03 3.230087484289304e-02