<?xml version="1.0" ?> 
<!-- 
# vtk DataFile Version 3.0
-->
<VTKFile type="UnstructuredGrid" version="0.1" compressor="vtkZLibDataCompressor" byte_order="LittleEndian">
  <UnstructuredGrid>
    <FieldData>
      <DataArray type="Float64" Name="TIME" NumberOfTuples="1" format="ascii">
1.000000000000000e+00 
      </DataArray>
    </FieldData>

    <Piece NumberOfPoints="324" NumberOfCells="12" >
      <Points>
        <DataArray type="Float64" NumberOfComponents="3" format="ascii">
-5.000000000000000e-01 -5.000000000000000e-01 -1.000000000000000e-01
0.000000000000000e+00 -5.000000000000000e-01 -1.000000000000000e-01
0.000000000000000e+00 -1.666666666665000e-01 -1.000000000000000e-01
-5.000000000000000e-01 -1.666666666665000e-01 -1.000000000000000e-01
-5.000000000000000e-01 -5.000000000000000e-01 1.500000000000000e-01
0.000000000000000e+00 -5.000000000000000e-01 1.500000000000000e-01
0.000000000000000e+00 -1.666666666665000e-01 1.500000000000000e-01
-5.000000000000000e-01 -1.666666666665000e-01 1.500000000000000e-01
-2.500000000000000e-01 -5.000000000000000e-01 -9.999999999999999e-02
0.000000000000000e+00 -3.333333333331250e-01 -1.000000000000000e-01
-2.500000000000000e-01 -1.666666666665000e-01 -1.000000000000000e-01
-5.000000000000000e-01 -3.333333333331250e-01 -9.999999999999999e-02
-2.500000000000000e-01 -5.000000000000000e-01 1.500000000000000e-01
0.000000000000000e+00 -3.333333333331250e-01 1.500000000000000e-01
-2.500000000000000e-01 -1.666666666665000e-01 1.500000000000000e-01
-5.000000000000000e-01 -3.333333333331250e-01 1.500000000000000e-01
-5.000000000000000e-01 -5.000000000000000e-01 2.500000000000000e-02
0.000000000000000e+00 -5.000000000000000e-01 2.500000000000000e-02
0.000000000000000e+00 -1.666666666665000e-01 2.500000000000000e-02
-5.000000000000000e-01 -1.666666666665000e-01 2.500000000000000e-02
-5.000000000000000e-01 -3.333333333331250e-01 2.500000000000000e-02
0.000000000000000e+00 -3.333333333331250e-01 2.500000000000000e-02
-2.500000000000000e-01 -5.000000000000000e-01 2.500000000000000e-02
-2.500000000000000e-01 -1.666666666665001e-01 2.500000000000000e-02
-2.500000000000000e-01 -3.333333333331250e-01 -9.999999999999999e-02
-2.500000000000000e-01 -3.333333333331250e-01 1.500000000000000e-01
-2.500000000000000e-01 -3.333333333331250e-01 2.500000000000000e-02
0.000000000000000e+00 -5.000000000000000e-01 -1.000000000000000e-01
5.000000000000000e-01 -5.000000000000000e-01 -1.000000000000000e-01
5.000000000000000e-01 -1.666666666665000e-01 -1.000000000000000e-01
0.000000000000000e+00 -1.666666666665000e-01 -1.000000000000000e-01
0.000000000000000e+00 -5.000000000000000e-01 1.500000000000000e-01
5.000000000000000e-01 -5.000000000000000e-01 1.500000000000000e-01
5.000000000000000e-01 -1.666666666665000e-01 1.500000000000000e-01
0.000000000000000e+00 -1.666666666665000e-01 1.500000000000000e-01
2.500000000000000e-01 -5.000000000000000e-01 -1.000000000000000e-01
5.000000000000000e-01 -3.333333333331250e-01 -9.999999999999999e-02
2.500000000000000e-01 -1.666666666665000e-01 -9.999999999999999e-02
0.000000000000000e+00 -3.333333333331250e-01 -1.000000000000000e-01
2.500000000000000e-01 -5.000000000000000e-01 1.500000000000000e-01
5.000000000000000e-01 -3.333333333331250e-01 1.500000000000000e-01
2.500000000000000e-01 -1.666666666665000e-01 1.500000000000000e-01
0.000000000000000e+00 -3.333333333331250e-01 1.500000000000000e-01
0.000000000000000e+00 -5.000000000000000e-01 2.500000000000000e-02
5.000000000000000e-01 -5.000000000000000e-01 2.500000000000000e-02
5.000000000000000e-01 -1.666666666665000e-01 2.500000000000000e-02
0.000000000000000e+00 -1.666666666665000e-01 2.500000000000000e-02
0.000000000000000e+00 -3.333333333331250e-01 2.500000000000000e-02
5.000000000000000e-01 -3.333333333331250e-01 2.500000000000000e-02
2.500000000000000e-01 -5.000000000000000e-01 2.500000000000000e-02
2.500000000000000e-01 -1.666666666665000e-01 2.500000000000000e-02
2.500000000000000e-01 -3.333333333331250e-01 -9.999999999999999e-02
2.500000000000000e-01 -3.333333333331251e-01 1.500000000000000e-01
2.500000000000000e-01 -3.333333333331250e-01 2.500000000000000e-02
-5.000000000000000e-01 -1.666666666665000e-01 -1.000000000000000e-01
0.000000000000000e+00 -1.666666666665000e-01 -1.000000000000000e-01
0.000000000000000e+00 1.666666666665000e-01 -9.999999999999999e-02
-5.000000000000000e-01 1.666666666665000e-01 -1.000000000000000e-01
-5.000000000000000e-01 -1.666666666665000e-01 1.500000000000000e-01
0.000000000000000e+00 -1.666666666665000e-01 1.500000000000000e-01
0.000000000000000e+00 1.666666666665000e-01 1.500000000000000e-01
-5.000000000000000e-01 1.666666666665000e-01 1.500000000000000e-01
-2.500000000000000e-01 -1.666666666665000e-01 -1.000000000000000e-01
0.000000000000000e+00 2.775557561562891e-17 -1.000000000000000e-01
-2.500000000000000e-01 1.666666666665000e-01 -9.999999999999999e-02
-5.000000000000001e-01 2.775557561562891e-17 -1.000000000000000e-01
-2.500000000000000e-01 -1.666666666665000e-01 1.500000000000000e-01
0.000000000000000e+00 3.469446951953614e-17 1.500000000000000e-01
-2.500000000000000e-01 1.666666666665000e-01 1.500000000000000e-01
-5.000000000000001e-01 2.775557561562891e-17 1.500000000000000e-01
-5.000000000000000e-01 -1.666666666665000e-01 2.500000000000000e-02
0.000000000000000e+00 -1.666666666665000e-01 2.500000000000000e-02
0.000000000000000e+00 1.666666666665000e-01 2.500000000000000e-02
-5.000000000000000e-01 1.666666666665000e-01 2.500000000000000e-02
-5.000000000000001e-01 2.428612866367530e-17 2.500000000000000e-02
0.000000000000000e+00 2.515349040166370e-17 2.500000000000000e-02
-2.500000000000000e-01 -1.666666666665001e-01 2.500000000000000e-02
-2.500000000000000e-01 1.666666666665000e-01 2.500000000000000e-02
-2.500000000000000e-01 2.428612866367530e-17 -9.999999999999999e-02
-2.500000000000000e-01 2.602085213965211e-17 1.500000000000000e-01
-2.500000000000000e-01 2.211772431870429e-17 2.500000000000000e-02
0.000000000000000e+00 -1.666666666665000e-01 -1.000000000000000e-01
5.000000000000000e-01 -1.666666666665000e-01 -1.000000000000000e-01
5.000000000000000e-01 1.666666666665000e-01 -1.000000000000000e-01
0.000000000000000e+00 1.666666666665000e-01 -9.999999999999999e-02
0.000000000000000e+00 -1.666666666665000e-01 1.500000000000000e-01
5.000000000000000e-01 -1.666666666665000e-01 1.500000000000000e-01
5.000000000000000e-01 1.666666666665000e-01 1.500000000000000e-01
0.000000000000000e+00 1.666666666665000e-01 1.500000000000000e-01
2.500000000000000e-01 -1.666666666665000e-01 -9.999999999999999e-02
5.000000000000001e-01 2.775557561562891e-17 -1.000000000000000e-01
2.500000000000000e-01 1.666666666665000e-01 -9.999999999999999e-02
0.000000000000000e+00 2.775557561562891e-17 -1.000000000000000e-01
2.500000000000000e-01 -1.666666666665000e-01 1.500000000000000e-01
5.000000000000001e-01 2.775557561562891e-17 1.500000000000000e-01
2.500000000000000e-01 1.666666666665000e-01 1.500000000000000e-01
0.000000000000000e+00 3.469446951953614e-17 1.500000000000000e-01
0.000000000000000e+00 -1.666666666665000e-01 2.500000000000000e-02
5.000000000000000e-01 -1.666666666665000e-01 2.500000000000000e-02
5.000000000000000e-01 1.666666666665000e-01 2.500000000000000e-02
0.000000000000000e+00 1.666666666665000e-01 2.500000000000000e-02
0.000000000000000e+00 2.515349040166370e-17 2.500000000000000e-02
5.000000000000001e-01 2.428612866367530e-17 2.500000000000000e-02
2.500000000000000e-01 -1.666666666665000e-01 2.500000000000000e-02
2.500000000000000e-01 1.666666666665000e-01 2.500000000000000e-02
2.500000000000000e-01 2.081668171172169e-17 -1.000000000000000e-01
2.500000000000000e-01 2.428612866367530e-17 1.500000000000000e-01
2.500000000000000e-01 2.341876692568690e-17 2.500000000000000e-02
-5.000000000000000e-01 1.666666666665000e-01 -1.000000000000000e-01
0.000000000000000e+00 1.666666666665000e-01 -9.999999999999999e-02
0.000000000000000e+00 5.000000000000000e-01 -1.000000000000000e-01
-5.000000000000000e-01 5.000000000000000e-01 -1.000000000000000e-01
-5.000000000000000e-01 1.666666666665000e-01 1.500000000000000e-01
0.000000000000000e+00 1.666666666665000e-01 1.500000000000000e-01
0.000000000000000e+00 5.000000000000000e-01 1.500000000000000e-01
-5.000000000000000e-01 5.000000000000000e-01 1.500000000000000e-01
-2.500000000000000e-01 1.666666666665000e-01 -9.999999999999999e-02
0.000000000000000e+00 3.333333333331250e-01 -1.000000000000000e-01
-2.500000000000000e-01 5.000000000000000e-01 -9.999999999999999e-02
-5.000000000000000e-01 3.333333333331250e-01 -1.000000000000000e-01
-2.500000000000000e-01 1.666666666665000e-01 1.500000000000000e-01
0.000000000000000e+00 3.333333333331250e-01 1.500000000000000e-01
-2.500000000000000e-01 5.000000000000000e-01 1.500000000000000e-01
-5.000000000000000e-01 3.333333333331250e-01 1.500000000000000e-01
-5.000000000000000e-01 1.666666666665000e-01 2.500000000000000e-02
0.000000000000000e+00 1.666666666665000e-01 2.500000000000000e-02
0.000000000000000e+00 5.000000000000000e-01 2.500000000000000e-02
-5.000000000000000e-01 5.000000000000000e-01 2.500000000000000e-02
-5.000000000000000e-01 3.333333333331250e-01 2.500000000000000e-02
0.000000000000000e+00 3.333333333331250e-01 2.499999999999999e-02
-2.500000000000000e-01 1.666666666665000e-01 2.500000000000000e-02
-2.500000000000000e-01 5.000000000000000e-01 2.500000000000000e-02
-2.500000000000000e-01 3.333333333331250e-01 -9.999999999999999e-02
-2.499999999999999e-01 3.333333333331250e-01 1.500000000000000e-01
-2.500000000000000e-01 3.333333333331249e-01 2.500000000000000e-02
0.000000000000000e+00 1.666666666665000e-01 -9.999999999999999e-02
5.000000000000000e-01 1.666666666665000e-01 -1.000000000000000e-01
5.000000000000000e-01 5.000000000000000e-01 -1.000000000000000e-01
0.000000000000000e+00 5.000000000000000e-01 -1.000000000000000e-01
0.000000000000000e+00 1.666666666665000e-01 1.500000000000000e-01
5.000000000000000e-01 1.666666666665000e-01 1.500000000000000e-01
[...]
  <PointData>
        <DataArray type="Float64" Name="displacement" NumberOfComponents="3" format="ascii">
0.000000000000000e+00 0.000000000000000e+00 0.000000000000000e+00
0.000000000000000e+00 0.000000000000000e+00 0.000000000000000e+00
0.000000000000000e+00 0.000000000000000e+00 0.000000000000000e+00
0.000000000000000e+00 0.000000000000000e+00 0.000000000000000e+00
2.014281292180473e-02 2.041489066623613e-02 4.173188610276871e-02
-1.734723475976807e-18 2.155620710586199e-02 3.700715503832058e-02
-2.385244779468110e-18 5.429144740624988e-03 3.230087484289305e-02
2.107684111881318e-02 5.362708048962697e-03 3.703835224886796e-02
0.000000000000000e+00 0.000000000000000e+00 0.000000000000000e+00
0.000000000000000e+00 0.000000000000000e+00 0.000000000000000e+00
0.000000000000000e+00 0.000000000000000e+00 0.000000000000000e+00
0.000000000000000e+00 0.000000000000000e+00 0.000000000000000e+00
8.339645159767912e-03 2.127087799595553e-02 3.818833780443261e-02
-2.602085213965211e-18 1.217548270224673e-02 3.356404419553870e-02
8.496645229661415e-03 5.412535567709415e-03 3.348524419438677e-02
2.054080364428855e-02 1.180710772776240e-02 3.831549745847619e-02
1.380349143309897e-02 1.392420454989466e-02 2.193183383920522e-02
-6.505213034913027e-19 1.469526571021546e-02 1.848278967848609e-02
-1.572093150103981e-18 2.796486312333498e-03 1.460894015224376e-02
1.437626140627804e-02 2.756594808513022e-03 1.812609048363942e-02
1.392707172342383e-02 6.926794648114939e-03 1.885857487533292e-02
-1.734723475976807e-18 7.169424317970738e-03 1.533281219622227e-02
4.555776649389221e-03 1.450250042013526e-02 1.934505071866587e-02
4.655256358888671e-03 2.786513436378380e-03 1.548822773509268e-02
0.000000000000000e+00 0.000000000000000e+00 0.000000000000000e+00
8.313736408373705e-03 1.208338895862565e-02 3.475190751127308e-02
4.528407585842800e-03 7.108766900506790e-03 1.621425286599993e-02
0.000000000000000e+00 0.000000000000000e+00 0.000000000000000e+00
0.000000000000000e+00 0.000000000000000e+00 0.000000000000000e+00
0.000000000000000e+00 0.000000000000000e+00 0.000000000000000e+00
0.000000000000000e+00 0.000000000000000e+00 0.000000000000000e+00
-1.734723475976807e-18 2.155620710586199e-02 3.700715503832058e-02
-2.014281292180474e-02 2.041489066623611e-02 4.173188610276869e-02
-2.107684111881317e-02 5.362708048962691e-03 3.703835224886798e-02
-2.385244779468110e-18 5.429144740624988e-03 3.230087484289305e-02
0.000000000000000e+00 0.000000000000000e+00 0.000000000000000e+00
0.000000000000000e+00 0.000000000000000e+00 0.000000000000000e+00
0.000000000000000e+00 0.000000000000000e+00 0.000000000000000e+00
0.000000000000000e+00 0.000000000000000e+00 0.000000000000000e+00
-8.339645159767919e-03 2.127087799595553e-02 3.818833780443261e-02
-2.054080364428855e-02 1.180710772776239e-02 3.831549745847620e-02
-8.496645229661415e-03 5.412535567709412e-03 3.348524419438677e-02
-2.602085213965211e-18 1.217548270224673e-02 3.356404419553870e-02
-6.505213034913027e-19 1.469526571021546e-02 1.848278967848609e-02
-1.380349143309898e-02 1.392420454989464e-02 2.193183383920519e-02
-1.437626140627804e-02 2.756594808513019e-03 1.812609048363943e-02
-1.572093150103981e-18 2.796486312333498e-03 1.460894015224376e-02
-1.734723475976807e-18 7.169424317970738e-03 1.533281219622227e-02
-1.392707172342383e-02 6.926794648114938e-03 1.885857487533293e-02
-4.555776649389224e-03 1.450250042013526e-02 1.934505071866587e-02
-4.655256358888672e-03 2.786513436378380e-03 1.548822773509268e-02
0.000000000000000e+00 0.000000000000000e+00 0.000000000000000e+00
-8.313736408373710e-03 1.208338895862565e-02 3.475190751127308e-02
-4.528407585842803e-03 7.108766900506788e-03 1.621425286599993e-02
0.000000000000000e+00 0.000000000000000e+00 0.000000000000000e+00
0.000000000000000e+00 0.000000000000000e+00 0.000000000000000e+00
0.000000000000000e+00 0.000000000000000e+00 0.000000000000000e+00
0.000000000000000e+00 0.000000000000000e+00 0.000000000000000e+00
2.107684111881318e-02 5.362708048962697e-03 3.703835224886796e-02
-2.385244779468110e-18 5.429144740624988e-03 3.230087484289305e-02
-6.505213034913027e-19 -5.429144740624987e-03 3.230087484289304e-02
2.107684111881317e-02 -5.362708048962692e-03 3.703835224886797e-02
0.000000000000000e+00 0.000000000000000e+00 0.000000000000000e+00
0.000000000000000e+00 0.000000000000000e+00 0.000000000000000e+00
0.000000000000000e+00 0.000000000000000e+00 0.000000000000000e+00
0.000000000000000e+00 0.000000000000000e+00 0.000000000000000e+00
8.496645229661415e-03 5.412535567709415e-03 3.348524419438677e-02
-1.680513367352532e-18 -5.421010862427522e-19 3.221427553910428e-02
8.496645229661414e-03 -5.412535567709414e-03 3.348524419438677e-02
2.137937154408570e-02 2.602085213965211e-18 3.693459050273493e-02
1.437626140627804e-02 2.756594808513022e-03 1.812609048363942e-02
-1.572093150103981e-18 2.796486312333498e-03 1.460894015224376e-02
-1.626303258728257e-19 -2.796486312333499e-03 1.460894015224376e-02
1.437626140627803e-02 -2.756594808513020e-03 1.812609048363942e-02
1.468225859583748e-02 1.626303258728257e-18 1.834504193083738e-02
-8.538092108323347e-19 1.897353801849633e-19 1.485353048982584e-02
4.655256358888671e-03 2.786513436378380e-03 1.548822773509268e-02
4.655256358888670e-03 -2.786513436378378e-03 1.548822773509267e-02
0.000000000000000e+00 0.000000000000000e+00 0.000000000000000e+00
8.640304033475746e-03 -3.794707603699266e-19 3.339435428001195e-02
4.757235204559679e-03 -5.285485590866834e-19 1.572640835007872e-02
0.000000000000000e+00 0.000000000000000e+00 0.000000000000000e+00
0.000000000000000e+00 0.000000000000000e+00 0.000000000000000e+00
0.000000000000000e+00 0.000000000000000e+00 0.000000000000000e+00
0.000000000000000e+00 0.000000000000000e+00 0.000000000000000e+00
-2.385244779468110e-18 5.429144740624988e-03 3.230087484289305e-02
-2.107684111881317e-02 5.362708048962691e-03 3.703835224886798e-02
-2.107684111881317e-02 -5.362708048962691e-03 3.703835224886796e-02
-6.505213034913027e-19 -5.429144740624987e-03 3.230087484289304e-02
0.000000000000000e+00 0.000000000000000e+00 0.000000000000000e+00
0.000000000000000e+00 0.000000000000000e+00 0.000000000000000e+00
0.000000000000000e+00 0.000000000000000e+00 0.000000000000000e+00
0.000000000000000e+00 0.000000000000000e+00 0.000000000000000e+00
-8.496645229661415e-03 5.412535567709412e-03 3.348524419438677e-02
-2.137937154408569e-02 -3.469446951953614e-18 3.693459050273493e-02
-8.496645229661414e-03 -5.412535567709414e-03 3.348524419438677e-02
-1.680513367352532e-18 -5.421010862427522e-19 3.221427553910428e-02
-1.572093150103981e-18 2.796486312333498e-03 1.460894015224376e-02
-1.437626140627804e-02 2.756594808513019e-03 1.812609048363943e-02
-1.437626140627804e-02 -2.756594808513020e-03 1.812609048363942e-02
-1.626303258728257e-19 -2.796486312333499e-03 1.460894015224376e-02
-8.538092108323347e-19 1.897353801849633e-19 1.485353048982584e-02
-1.468225859583748e-02 -2.927345865710862e-18 1.834504193083737e-02
-4.655256358888672e-03 2.786513436378380e-03 1.548822773509268e-02
-4.655256358888670e-03 -2.786513436378380e-03 1.548822773509267e-02
0.000000000000000e+00 0.000000000000000e+00 0.000000000000000e+00
-8.640304033475748e-03 -1.626303258728257e-19 3.339435428001193e-02
-4.757235204559680e-03 3.930232875259954e-19 1.572640835007872e-02
0.000000000000000e+00 0.000000000000000e+00 0.000000000000000e+00
0.000000000000000e+00 0.000000000000000e+00 0.000000000000000e+00
0.000000000000000e+00 0.000000000000000e+00 0.000000000000000e+00
0.000000000000000e+00 0.000000000000000e+00 0.000000000000000e+00
2.107684111881317e-02 -5.362708048962692e-03 3.703835224886797e-02
-6.505213034913027e-19 -5.429144740624987e-03 3.230087484289304e-02
-8.673617379884035e-19 -2.155620710586200e-02 3.700715503832059e-02
2.014281292180473e-02 -2.041489066623611e-02 4.173188610276870e-02
0.000000000000000e+00 0.000000000000000e+00 0.000000000000000e+00
0.000000000000000e+00 0.000000000000000e+00 0.000000000000000e+00
0.000000000000000e+00 0.000000000000000e+00 0.000000000000000e+00
0.000000000000000e+00 0.000000000000000e+00 0.000000000000000e+00
8.496645229661414e-03 -5.412535567709414e-03 3.348524419438677e-02
0.000000000000000e+00 -1.217548270224674e-02 3.356404419553870e-02
8.339645159767914e-03 -2.127087799595553e-02 3.818833780443261e-02
2.054080364428855e-02 -1.180710772776240e-02 3.831549745847620e-02
1.437626140627803e-02 -2.756594808513020e-03 1.812609048363942e-02
-1.626303258728257e-19 -2.796486312333499e-03 1.460894015224376e-02
-1.084202172485504e-19 -1.469526571021546e-02 1.848278967848609e-02
1.380349143309898e-02 -1.392420454989464e-02 2.193183383920520e-02
1.392707172342383e-02 -6.926794648114937e-03 1.885857487533292e-02
2.710505431213761e-19 -7.169424317970738e-03 1.533281219622227e-02
4.655256358888670e-03 -2.786513436378378e-03 1.548822773509267e-02
4.555776649389219e-03 -1.450250042013526e-02 1.934505071866587e-02
0.000000000000000e+00 0.000000000000000e+00 0.000000000000000e+00
8.313736408373707e-03 -1.208338895862565e-02 3.475190751127306e-02
4.528407585842799e-03 -7.108766900506786e-03 1.621425286599993e-02
0.000000000000000e+00 0.000000000000000e+00 0.000000000000000e+00
0.000000000000000e+00 0.000000000000000e+00 0.000000000000000e+00
0.000000000000000e+00 0.000000000000000e+00 0.000000000000000e+00
0.000000000000000e+00 0.000000000000000e+00 0.000000000000000e+00
-6.505213034913027e-19 -5.429144740624987e-03 3.230087484289304e-02
-2.107684111881317e-02 -5.362708048962691e-03 3.703835224886796e-02
-2.014281292180474e-02 -2.041489066623612e-02 4.173188610276871e-02
-8.673617379884035e-19 -2.155620710586200e-02 3.700715503832059e-02
0.000000000000000e+00 0.000000000000000e+00 0.000000000000000e+00
0.000000000000000e+00 0.000000000000000e+00 0.000000000000000e+00
0.000000000000000e+00 0.000000000000000e+00 0.000000000000000e+00
0.000000000000000e+00 0.000000000000000e+00 0.000000000000000e+00
-8.496645229661414e-03 -5.412535567709414e-03 3.348524419438677e-02
-2.054080364428855e-02 -1.180710772776239e-02 3.831549745847619e-02
-8.339645159767917e-03 -2.127087799595553e-02 3.818833780443261e-02
0.000000000000000e+00 -1.217548270224674e-02 3.356404419553870e-02
-1.626303258728257e-19 -2.796486312333499e-03 1.460894015224376e-02
-1.437626140627804e-02 -2.756594808513020e-03 1.812609048363942e-02
-1.380349143309899e-02 -1.392420454989466e-02 2.193183383920522e-02
-1.084202172485504e-19 -1.469526571021546e-02 1.848278967848609e-02
2.710505431213761e-19 -7.169424317970738e-03 1.533281219622227e-02
-1.392707172342384e-02 -6.926794648114937e-03 1.885857487533292e-02
-4.655256358888670e-03 -2.786513436378380e-03 1.548822773509267e-02
-4.555776649389222e-03 -1.450250042013526e-02 1.934505071866587e-02
0.000000000000000e+00 0.000000000000000e+00 0.000000000000000e+00
-8.313736408373709e-03 -1.208338895862565e-02 3.475190751127306e-02
-4.528407585842800e-03 -7.108766900506790e-03 1.621425286599993e-02
2.014281292180473e-02 2.041489066623613e-02 4.173188610276871e-02
-1.734723475976807e-18 2.155620710586199e-02 3.700715503832058e-02
-2.385244779468110e-18 5.429144740624988e-03 3.230087484289305e-02
2.107684111881318e-02 5.362708048962697e-03 3.703835224886796e-02
2.457090776255629e-02 2.462224021071000e-02 7.853157122033076e-02
-3.035766082959412e-18 2.556143495083017e-02 7.490720249775260e-02
-1.517883041479706e-18 8.407511870415055e-03 7.195668959970244e-02
2.525436284842851e-02 8.335406626078488e-03 7.545935094470248e-02
8.339645159767912e-03 2.127087799595553e-02 3.818833780443261e-02
-2.602085213965211e-18 1.217548270224673e-02 3.356404419553870e-02
8.496645229661415e-03 5.412535567709415e-03 3.348524419438677e-02
2.054080364428855e-02 1.180710772776240e-02 3.831549745847619e-02
1.244955611391917e-02 2.532663626580013e-02 7.581329467839713e-02
-2.059984127722458e-18 1.689974857572636e-02 7.324570090825962e-02
1.258649951946399e-02 8.389485559330914e-03 7.283235493595246e-02
2.489808618241907e-02 1.657481833527561e-02 7.677459829504113e-02
2.255345489024719e-02 2.285369150213703e-02 6.029888812003053e-02
-2.059984127722458e-18 2.402940368628508e-02 5.575474350343294e-02
-2.602085213965211e-18 7.449108766207746e-03 5.183154451202142e-02
2.355259098404886e-02 7.371318921450644e-03 5.629627562583815e-02
2.310865528861376e-02 1.492757152734756e-02 5.780832088614166e-02
-2.249719507907422e-18 1.531873687933095e-02 5.332467932415071e-02
1.106608011874244e-02 2.373547564024807e-02 5.689077965758234e-02
1.123633636546945e-02 7.429661305018472e-03 5.294772729047562e-02
8.313736408373705e-03 1.208338895862565e-02 3.475190751127308e-02
1.243243370176852e-02 1.681851601561368e-02 7.412792525495501e-02
1.105030545215989e-02 1.522094554133511e-02 5.444558971464843e-02
-1.734723475976807e-18 2.155620710586199e-02 3.700715503832058e-02
-2.014281292180474e-02 2.041489066623611e-02 4.173188610276869e-02
-2.107684111881317e-02 5.362708048962691e-03 3.703835224886798e-02
-2.385244779468110e-18 5.429144740624988e-03 3.230087484289305e-02
-3.035766082959412e-18 2.556143495083017e-02 7.490720249775260e-02
-2.457090776255631e-02 2.462224021070999e-02 7.853157122033078e-02
-2.525436284842850e-02 8.335406626078477e-03 7.545935094470246e-02
-1.517883041479706e-18 8.407511870415055e-03 7.195668959970244e-02
-8.339645159767919e-03 2.127087799595553e-02 3.818833780443261e-02
-2.054080364428855e-02 1.180710772776239e-02 3.831549745847620e-02
-8.496645229661415e-03 5.412535567709412e-03 3.348524419438677e-02
-2.602085213965211e-18 1.217548270224673e-02 3.356404419553870e-02
-1.244955611391918e-02 2.532663626580012e-02 7.581329467839712e-02
-2.489808618241907e-02 1.657481833527559e-02 7.677459829504113e-02
-1.258649951946399e-02 8.389485559330908e-03 7.283235493595244e-02
-2.059984127722458e-18 1.689974857572636e-02 7.324570090825962e-02
-2.059984127722458e-18 2.402940368628508e-02 5.575474350343294e-02
-2.255345489024720e-02 2.285369150213701e-02 6.029888812003054e-02
-2.355259098404885e-02 7.371318921450636e-03 5.629627562583815e-02
-2.602085213965211e-18 7.449108766207746e-03 5.183154451202142e-02
-2.249719507907422e-18 1.531873687933095e-02 5.332467932415071e-02
-2.310865528861376e-02 1.492757152734755e-02 5.780832088614166e-02
-1.106608011874245e-02 2.373547564024806e-02 5.689077965758234e-02
-1.123633636546945e-02 7.429661305018469e-03 5.294772729047562e-02
-8.313736408373710e-03 1.208338895862565e-02 3.475190751127308e-02
-1.243243370176852e-02 1.681851601561367e-02 7.412792525495500e-02
-1.105030545215989e-02 1.522094554133510e-02 5.444558971464843e-02
2.107684111881318e-02 5.362708048962697e-03 3.703835224886796e-02
-2.385244779468110e-18 5.429144740624988e-03 3.230087484289305e-02
-6.505213034913027e-19 -5.429144740624987e-03 3.230087484289304e-02
2.107684111881317e-02 -5.362708048962692e-03 3.703835224886797e-02
2.525436284842851e-02 8.335406626078488e-03 7.545935094470248e-02
-1.517883041479706e-18 8.407511870415055e-03 7.195668959970244e-02
0.000000000000000e+00 -8.407511870415055e-03 7.195668959970243e-02
2.525436284842851e-02 -8.335406626078481e-03 7.545935094470248e-02
8.496645229661415e-03 5.412535567709415e-03 3.348524419438677e-02
-1.680513367352532e-18 -5.421010862427522e-19 3.221427553910428e-02
8.496645229661414e-03 -5.412535567709414e-03 3.348524419438677e-02
2.137937154408570e-02 2.602085213965211e-18 3.693459050273493e-02
1.258649951946399e-02 8.389485559330914e-03 7.283235493595246e-02
-3.794707603699266e-19 -1.951563910473908e-18 7.140530651565780e-02
1.258649951946399e-02 -8.389485559330914e-03 7.283235493595244e-02
2.543977574296990e-02 2.385244779468110e-18 7.491215866327092e-02
2.355259098404886e-02 7.371318921450644e-03 5.629627562583815e-02
-2.602085213965211e-18 7.449108766207746e-03 5.183154451202142e-02
-7.047314121155779e-19 -7.449108766207747e-03 5.183154451202141e-02
2.355259098404885e-02 -7.371318921450638e-03 5.629627562583815e-02
2.374674265603353e-02 2.331034670843835e-18 5.578488348908276e-02
-1.829591166069289e-18 -1.084202172485504e-18 5.131920944774503e-02
1.123633636546945e-02 7.429661305018472e-03 5.294772729047562e-02
1.123633636546945e-02 -7.429661305018470e-03 5.294772729047559e-02
8.640304033475746e-03 -3.794707603699266e-19 3.339435428001195e-02
1.270632948577325e-02 8.131516293641283e-20 7.228201955256110e-02
1.137980321709725e-02 2.913793338554793e-19 5.243562795807948e-02
-2.385244779468110e-18 5.429144740624988e-03 3.230087484289305e-02
-2.107684111881317e-02 5.362708048962691e-03 3.703835224886798e-02
-2.107684111881317e-02 -5.362708048962691e-03 3.703835224886796e-02
-6.505213034913027e-19 -5.429144740624987e-03 3.230087484289304e-02
-1.517883041479706e-18 8.407511870415055e-03 7.195668959970244e-02
-2.525436284842850e-02 8.335406626078477e-03 7.545935094470246e-02
-2.525436284842850e-02 -8.335406626078481e-03 7.545935094470246e-02
0.000000000000000e+00 -8.407511870415055e-03 7.195668959970243e-02
-8.496645229661415e-03 5.412535567709412e-03 3.348524419438677e-02
-2.137937154408569e-02 -3.469446951953614e-18 3.693459050273493e-02
-8.496645229661414e-03 -5.412535567709414e-03 3.348524419438677e-02
-1.680513367352532e-18 -5.421010862427522e-19 3.221427553910428e-02
-1.258649951946399e-02 8.389485559330908e-03 7.283235493595244e-02
-2.543977574296988e-02 -3.252606517456513e-18 7.491215866327092e-02
-1.258649951946399e-02 -8.389485559330912e-03 7.283235493595244e-02
-3.794707603699266e-19 -1.951563910473908e-18 7.140530651565780e-02
-2.602085213965211e-18 7.449108766207746e-03 5.183154451202142e-02
-2.355259098404885e-02 7.371318921450636e-03 5.629627562583815e-02
-2.355259098404884e-02 -7.371318921450637e-03 5.629627562583814e-02
-7.047314121155779e-19 -7.449108766207747e-03 5.183154451202141e-02
-1.829591166069289e-18 -1.084202172485504e-18 5.131920944774503e-02
-2.374674265603352e-02 -3.523657060577889e-18 5.578488348908275e-02
-1.123633636546945e-02 7.429661305018469e-03 5.294772729047562e-02
-1.123633636546945e-02 -7.429661305018469e-03 5.294772729047561e-02
-8.640304033475748e-03 -1.626303258728257e-19 3.339435428001193e-02
-1.270632948577325e-02 -2.818925648462312e-18 7.228201955256107e-02
-1.137980321709725e-02 -1.409462824231156e-18 5.243562795807947e-02
2.107684111881317e-02 -5.362708048962692e-03 3.703835224886797e-02
-6.505213034913027e-19 -5.429144740624987e-03 3.230087484289304e-02
-8.673617379884035e-19 -2.155620710586200e-02 3.700715503832059e-02
2.014281292180473e-02 -2.041489066623611e-02 4.173188610276870e-02
2.525436284842851e-02 -8.335406626078481e-03 7.545935094470248e-02
0.000000000000000e+00 -8.407511870415055e-03 7.195668959970243e-02
4.336808689942018e-19 -2.556143495083017e-02 7.490720249775258e-02
2.457090776255630e-02 -2.462224021071000e-02 7.853157122033078e-02
8.496645229661414e-03 -5.412535567709414e-03 3.348524419438677e-02
0.000000000000000e+00 -1.217548270224674e-02 3.356404419553870e-02
8.339645159767914e-03 -2.127087799595553e-02 3.818833780443261e-02
2.054080364428855e-02 -1.180710772776240e-02 3.831549745847620e-02
1.258649951946399e-02 -8.389485559330914e-03 7.283235493595244e-02
7.589415207398531e-19 -1.689974857572636e-02 7.324570090825962e-02
1.244955611391918e-02 -2.532663626580013e-02 7.581329467839712e-02
2.489808618241908e-02 -1.657481833527560e-02 7.677459829504114e-02
2.355259098404885e-02 -7.371318921450638e-03 5.629627562583815e-02
-7.047314121155779e-19 -7.449108766207747e-03 5.183154451202141e-02
-5.421010862427522e-19 -2.402940368628508e-02 5.575474350343293e-02
2.255345489024719e-02 -2.285369150213703e-02 6.029888812003054e-02
2.310865528861376e-02 -1.492757152734756e-02 5.780832088614166e-02
-1.355252715606881e-19 -1.531873687933095e-02 5.332467932415068e-02
1.123633636546945e-02 -7.429661305018470e-03 5.294772729047559e-02
1.106608011874245e-02 -2.373547564024807e-02 5.689077965758234e-02
8.313736408373707e-03 -1.208338895862565e-02 3.475190751127306e-02
1.243243370176853e-02 -1.681851601561367e-02 7.412792525495497e-02
1.105030545215989e-02 -1.522094554133511e-02 5.444558971464842e-02