<?xml version="1.0" ?> 
<!-- 
# vtk DataFile Version 3.0
-->
<VTKFile type="UnstructuredGrid" version="0.1" compressor="vtkZLibDataCompressor" byte_order="LittleEndian">
  <UnstructuredGrid>
    <FieldData>
      <DataArray type="Float64" Name="TIME" NumberOfTuples="1" format="ascii">
1.000000000000000e+00 
      </DataArray>
    </FieldData>

    <Piece NumberOfPoints="324" NumberOfCells="12" >
      <Points>
        <DataArray type="Float64" NumberOfComponents="3" format="ascii">
-5.000000000000000e-01 -5.000000000000000e-01 4.000000000000000e-01
0.000000000000000e+00 -5.000000000000000e-01 4.000000000000000e-01
0.000000000000000e+00 -1.666666666665000e-01 4.000000000000000e-01
-5.000000000000000e-01 -1.666666666665000e-01 4.000000000000000e-01
-5.000000000000000e-01 -5.000000000000000e-01 6.500000000000000e-01
0.000000000000000e+00 -5.000000000000000e-01 6.500000000000000e-01
0.000000000000000e+00 -1.666666666665000e-01 6.500000000000000e-01
-5.000000000000000e-01 -1.666666666665000e-01 6.500000000000000e-01
-2.500000000000000e-01 -5.000000000000000e-01 4.000000000000000e-01
0.000000000000000e+00 -3.333333333331250e-01 4.000000000000000e-01
-2.500000000000000e-01 -1.666666666665000e-01 4.000000000000000e-01
-5.000000000000000e-01 -3.333333333331250e-01 4.000000000000000e-01
-2.500000000000000e-01 -5.000000000000000e-01 6.500000000000000e-01
0.000000000000000e+00 -3.333333333331250e-01 6.499999999999999e-01
-2.500000000000000e-01 -1.666666666665000e-01 6.500000000000000e-01
-5.000000000000000e-01 -3.333333333331250e-01 6.500000000000000e-01
-5.000000000000000e-01 -5.000000000000000e-01 5.250000000000000e-01
0.000000000000000e+00 -5.000000000000000e-01 5.250000000000000e-01
0.000000000000000e+00 -1.666666666665000e-01 5.250000000000000e-01
-5.000000000000000e-01 -1.666666666665000e-01 5.250000000000000e-01
-5.000000000000000e-01 -3.333333333331250e-01 5.250000000000000e-01
0.000000000000000e+00 -3.333333333331250e-01 5.250000000000000e-01
-2.500000000000000e-01 -5.000000000000000e-01 5.250000000000000e-01
-2.500000000000000e-01 -1.666666666665000e-01 5.250000000000000e-01
-2.500000000000000e-01 -3.333333333331250e-01 4.000000000000000e-01
-2.500000000000000e-01 -3.333333333331250e-01 6.500000000000000e-01
-2.500000000000000e-01 -3.333333333331250e-01 5.250000000000000e-01
0.000000000000000e+00 -5.000000000000000e-01 4.000000000000000e-01
5.000000000000000e-01 -5.000000000000000e-01 4.000000000000000e-01
5.000000000000000e-01 -1.666666666665000e-01 4.000000000000000e-01
0.000000000000000e+00 -1.666666666665000e-01 4.000000000000000e-01
0.000000000000000e+00 -5.000000000000000e-01 6.500000000000000e-01
5.000000000000000e-01 -5.000000000000000e-01 6.500000000000000e-01
5.000000000000000e-01 -1.666666666665000e-01 6.500000000000000e-01
0.000000000000000e+00 -1.666666666665000e-01 6.500000000000000e-01
2.500000000000000e-01 -5.000000000000000e-01 4.000000000000000e-01
5.000000000000000e-01 -3.333333333331250e-01 4.000000000000000e-01
2.500000000000000e-01 -1.666666666665000e-01 4.000000000000001e-01
0.000000000000000e+00 -3.333333333331250e-01 4.000000000000000e-01
2.500000000000000e-01 -5.000000000000000e-01 6.500000000000001e-01
5.000000000000000e-01 -3.333333333331250e-01 6.500000000000000e-01
2.500000000000000e-01 -1.666666666665000e-01 6.500000000000000e-01
0.000000000000000e+00 -3.333333333331250e-01 6.499999999999999e-01
0.000000000000000e+00 -5.000000000000000e-01 5.250000000000000e-01
5.000000000000000e-01 -5.000000000000000e-01 5.250000000000000e-01
5.000000000000000e-01 -1.666666666665000e-01 5.250000000000000e-01
0.000000000000000e+00 -1.666666666665000e-01 5.250000000000000e-01
0.000000000000000e+00 -3.333333333331250e-01 5.250000000000000e-01
5.000000000000000e-01 -3.333333333331250e-01 5.250000000000000e-01
2.500000000000000e-01 -5.000000000000000e-01 5.249999999999999e-01
2.500000000000000e-01 -1.666666666665000e-01 5.249999999999999e-01
2.500000000000000e-01 -3.333333333331251e-01 4.000000000000000e-01
2.500000000000000e-01 -3.333333333331251e-01 6.500000000000000e-01
2.500000000000000e-01 -3.333333333331249e-01 5.250000000000000e-01
-5.000000000000000e-01 -1.666666666665000e-01 4.000000000000000e-01
0.000000000000000e+00 -1.666666666665000e-01 4.000000000000000e-01
0.000000000000000e+00 1.666666666665000e-01 4.000000000000000e-01
-5.000000000000000e-01 1.666666666665000e-01 4.000000000000000e-01
-5.000000000000000e-01 -1.666666666665000e-01 6.500000000000000e-01
0.000000000000000e+00 -1.666666666665000e-01 6.500000000000000e-01
0.000000000000000e+00 1.666666666665000e-01 6.499999999999999e-01
-5.000000000000000e-01 1.666666666665000e-01 6.499999999999999e-01
-2.500000000000000e-01 -1.666666666665000e-01 4.000000000000000e-01
0.000000000000000e+00 3.469446951953614e-17 4.000000000000001e-01
-2.500000000000000e-01 1.666666666665000e-01 4.000000000000000e-01
-5.000000000000001e-01 2.775557561562891e-17 4.000000000000001e-01
-2.500000000000000e-01 -1.666666666665000e-01 6.500000000000000e-01
0.000000000000000e+00 3.469446951953614e-17 6.499999999999999e-01
-2.500000000000000e-01 1.666666666665000e-01 6.500000000000000e-01
-5.000000000000001e-01 2.775557561562891e-17 6.500000000000001e-01
-5.000000000000000e-01 -1.666666666665000e-01 5.250000000000000e-01
0.000000000000000e+00 -1.666666666665000e-01 5.250000000000000e-01
0.000000000000000e+00 1.666666666665000e-01 5.249999999999999e-01
-5.000000000000000e-01 1.666666666665000e-01 5.250000000000000e-01
-5.000000000000000e-01 3.469446951953614e-17 5.250000000000000e-01
0.000000000000000e+00 3.469446951953614e-17 5.250000000000001e-01
-2.500000000000000e-01 -1.666666666665000e-01 5.250000000000000e-01
-2.500000000000000e-01 1.666666666665000e-01 5.249999999999999e-01
-2.500000000000000e-01 2.602085213965211e-17 4.000000000000000e-01
-2.500000000000000e-01 2.602085213965211e-17 6.500000000000000e-01
-2.500000000000000e-01 3.079134169858833e-17 5.250000000000000e-01
0.000000000000000e+00 -1.666666666665000e-01 4.000000000000000e-01
5.000000000000000e-01 -1.666666666665000e-01 4.000000000000000e-01
5.000000000000000e-01 1.666666666665000e-01 4.000000000000000e-01
0.000000000000000e+00 1.666666666665000e-01 4.000000000000000e-01
0.000000000000000e+00 -1.666666666665000e-01 6.500000000000000e-01
5.000000000000000e-01 -1.666666666665000e-01 6.500000000000000e-01
5.000000000000000e-01 1.666666666665000e-01 6.499999999999999e-01
0.000000000000000e+00 1.666666666665000e-01 6.499999999999999e-01
2.500000000000000e-01 -1.666666666665000e-01 4.000000000000001e-01
5.000000000000001e-01 2.775557561562891e-17 4.000000000000001e-01
2.500000000000000e-01 1.666666666665000e-01 4.000000000000000e-01
0.000000000000000e+00 3.469446951953614e-17 4.000000000000001e-01
2.500000000000000e-01 -1.666666666665000e-01 6.500000000000000e-01
5.000000000000001e-01 2.775557561562891e-17 6.500000000000001e-01
2.500000000000000e-01 1.666666666665000e-01 6.500000000000000e-01
0.000000000000000e+00 3.469446951953614e-17 6.499999999999999e-01
0.000000000000000e+00 -1.666666666665000e-01 5.250000000000000e-01
5.000000000000000e-01 -1.666666666665000e-01 5.250000000000000e-01
5.000000000000000e-01 1.666666666665000e-01 5.250000000000000e-01
0.000000000000000e+00 1.666666666665000e-01 5.249999999999999e-01
0.000000000000000e+00 3.469446951953614e-17 5.250000000000001e-01
5.000000000000000e-01 3.469446951953614e-17 5.250000000000000e-01
2.500000000000000e-01 -1.666666666665000e-01 5.249999999999999e-01
2.500000000000000e-01 1.666666666665000e-01 5.249999999999999e-01
2.500000000000000e-01 2.428612866367530e-17 4.000000000000000e-01
2.500000000000000e-01 2.428612866367530e-17 6.499999999999999e-01
2.500000000000000e-01 2.515349040166370e-17 5.250000000000000e-01
-5.000000000000000e-01 1.666666666665000e-01 4.000000000000000e-01
0.000000000000000e+00 1.666666666665000e-01 4.000000000000000e-01
0.000000000000000e+00 5.000000000000000e-01 4.000000000000000e-01
-5.000000000000000e-01 5.000000000000000e-01 4.000000000000000e-01
-5.000000000000000e-01 1.666666666665000e-01 6.499999999999999e-01
0.000000000000000e+00 1.666666666665000e-01 6.499999999999999e-01
0.000000000000000e+00 5.000000000000000e-01 6.500000000000000e-01
-5.000000000000000e-01 5.000000000000000e-01 6.500000000000000e-01
-2.500000000000000e-01 1.666666666665000e-01 4.000000000000000e-01
0.000000000000000e+00 3.333333333331250e-01 4.000000000000000e-01
-2.500000000000000e-01 5.000000000000000e-01 4.000000000000000e-01
-5.000000000000000e-01 3.333333333331250e-01 4.000000000000001e-01
-2.500000000000000e-01 1.666666666665000e-01 6.500000000000000e-01
0.000000000000000e+00 3.333333333331250e-01 6.500000000000001e-01
-2.500000000000000e-01 5.000000000000000e-01 6.500000000000000e-01
-5.000000000000000e-01 3.333333333331250e-01 6.500000000000000e-01
-5.000000000000000e-01 1.666666666665000e-01 5.250000000000000e-01
0.000000000000000e+00 1.666666666665000e-01 5.249999999999999e-01
0.000000000000000e+00 5.000000000000000e-01 5.250000000000000e-01
-5.000000000000000e-01 5.000000000000000e-01 5.250000000000000e-01
-5.000000000000000e-01 3.333333333331250e-01 5.250000000000000e-01
0.000000000000000e+00 3.333333333331250e-01 5.249999999999999e-01
-2.500000000000000e-01 1.666666666665000e-01 5.249999999999999e-01
-2.500000000000000e-01 5.000000000000000e-01 5.250000000000000e-01
-2.499999999999999e-01 3.333333333331250e-01 3.999999999999999e-01
-2.499999999999999e-01 3.333333333331250e-01 6.499999999999998e-01
-2.500000000000000e-01 3.333333333331249e-01 5.250000000000001e-01
0.000000000000000e+00 1.666666666665000e-01 4.000000000000000e-01
5.000000000000000e-01 1.666666666665000e-01 4.000000000000000e-01
5.000000000000000e-01 5.000000000000000e-01 4.000000000000000e-01
0.000000000000000e+00 5.000000000000000e-01 4.000000000000000e-01
0.000000000000000e+00 1.666666666665000e-01 6.499999999999999e-01
5.000000000000000e-01 1.666666666665000e-01 6.499999999999999e-01
5.000000000000000e-01 5.000000000000000e-01 6.500000000000000e-01
[...]
  <PointData>
        <DataArray type="Float64" Name="displacement" NumberOfComponents="3" format="ascii">
2.457090776255629e-02 2.462224021071000e-02 7.853157122033076e-02
-3.035766082959412e-18 2.556143495083017e-02 7.490720249775260e-02
-1.517883041479706e-18 8.407511870415055e-03 7.195668959970244e-02
2.525436284842851e-02 8.335406626078488e-03 7.545935094470248e-02
2.658140328921309e-02 2.644545614567165e-02 1.160315792645802e-01
-3.903127820947816e-18 2.675806272913940e-02 1.141238786003127e-01
4.336808689942018e-19 8.956871820690991e-03 1.126053927789349e-01
2.670231632640694e-02 8.922314835981824e-03 1.143810030723665e-01
1.244955611391917e-02 2.532663626580013e-02 7.581329467839713e-02
-2.059984127722458e-18 1.689974857572636e-02 7.324570090825962e-02
1.258649951946399e-02 8.389485559330914e-03 7.283235493595246e-02
2.489808618241907e-02 1.657481833527561e-02 7.677459829504113e-02
1.338317753093017e-02 2.667991108327247e-02 1.146008037663796e-01
-1.517883041479706e-18 1.788560545814859e-02 1.133601319504250e-01
1.342519382118607e-02 8.948232574513697e-03 1.130492953522928e-01
2.657321613894590e-02 1.776425758139519e-02 1.151730171602557e-01
2.598396080634171e-02 2.579475551690492e-02 9.693933505230284e-02
-3.252606517456513e-18 2.639131619871052e-02 9.438881865285428e-02
-3.252606517456513e-19 8.758663179743833e-03 9.233005679298924e-02
2.627374264989894e-02 8.703046738903217e-03 9.474758962152419e-02
2.601697893082346e-02 1.732749730285525e-02 9.572570521110302e-02
-1.680513367352532e-18 1.754615802435742e-02 9.327491607472971e-02
1.303895972481084e-02 2.624217602825913e-02 9.502644775271643e-02
1.312387267643840e-02 8.744759069533679e-03 9.293444000012301e-02
1.243243370176852e-02 1.681851601561368e-02 7.412792525495501e-02
1.336625813581781e-02 1.785526848896024e-02 1.138133532528827e-01
1.301834373654077e-02 1.749149284398188e-02 9.388761335882302e-02
-3.035766082959412e-18 2.556143495083017e-02 7.490720249775260e-02
-2.457090776255631e-02 2.462224021070999e-02 7.853157122033078e-02
-2.525436284842850e-02 8.335406626078477e-03 7.545935094470246e-02
-1.517883041479706e-18 8.407511870415055e-03 7.195668959970244e-02
-3.903127820947816e-18 2.675806272913940e-02 1.141238786003127e-01
-2.658140328921308e-02 2.644545614567165e-02 1.160315792645802e-01
-2.670231632640693e-02 8.922314835981809e-03 1.143810030723665e-01
4.336808689942018e-19 8.956871820690991e-03 1.126053927789349e-01
-1.244955611391918e-02 2.532663626580012e-02 7.581329467839712e-02
-2.489808618241907e-02 1.657481833527559e-02 7.677459829504113e-02
-1.258649951946399e-02 8.389485559330908e-03 7.283235493595244e-02
-2.059984127722458e-18 1.689974857572636e-02 7.324570090825962e-02
-1.338317753093018e-02 2.667991108327245e-02 1.146008037663796e-01
-2.657321613894589e-02 1.776425758139517e-02 1.151730171602557e-01
-1.342519382118607e-02 8.948232574513696e-03 1.130492953522928e-01
-1.517883041479706e-18 1.788560545814859e-02 1.133601319504250e-01
-3.252606517456513e-18 2.639131619871052e-02 9.438881865285428e-02
-2.598396080634171e-02 2.579475551690490e-02 9.693933505230286e-02
-2.627374264989893e-02 8.703046738903205e-03 9.474758962152419e-02
-3.252606517456513e-19 8.758663179743833e-03 9.233005679298924e-02
-1.680513367352532e-18 1.754615802435742e-02 9.327491607472971e-02
-2.601697893082346e-02 1.732749730285523e-02 9.572570521110303e-02
-1.303895972481084e-02 2.624217602825912e-02 9.502644775271642e-02
-1.312387267643840e-02 8.744759069533675e-03 9.293444000012298e-02
-1.243243370176852e-02 1.681851601561367e-02 7.412792525495500e-02
-1.336625813581781e-02 1.785526848896023e-02 1.138133532528827e-01
-1.301834373654077e-02 1.749149284398187e-02 9.388761335882302e-02
2.525436284842851e-02 8.335406626078488e-03 7.545935094470248e-02
-1.517883041479706e-18 8.407511870415055e-03 7.195668959970244e-02
0.000000000000000e+00 -8.407511870415055e-03 7.195668959970243e-02
2.525436284842851e-02 -8.335406626078481e-03 7.545935094470248e-02
2.670231632640694e-02 8.922314835981824e-03 1.143810030723665e-01
4.336808689942018e-19 8.956871820690991e-03 1.126053927789349e-01
3.035766082959412e-18 -8.956871820690986e-03 1.126053927789349e-01
2.670231632640695e-02 -8.922314835981812e-03 1.143810030723665e-01
1.258649951946399e-02 8.389485559330914e-03 7.283235493595246e-02
-3.794707603699266e-19 -1.951563910473908e-18 7.140530651565780e-02
1.258649951946399e-02 -8.389485559330914e-03 7.283235493595244e-02
2.543977574296990e-02 2.385244779468110e-18 7.491215866327092e-02
1.342519382118607e-02 8.948232574513697e-03 1.130492953522928e-01
2.547875105340935e-18 -2.059984127722458e-18 1.122302750627893e-01
1.342519382118607e-02 -8.948232574513694e-03 1.130492953522928e-01
2.680118825456953e-02 7.155734338404329e-18 1.140016330325307e-01
2.627374264989894e-02 8.703046738903217e-03 9.474758962152419e-02
-3.252606517456513e-19 8.758663179743833e-03 9.233005679298924e-02
1.897353801849633e-18 -8.758663179743831e-03 9.233005679298922e-02
2.627374264989893e-02 -8.703046738903208e-03 9.474758962152419e-02
2.645806090808511e-02 2.710505431213761e-18 9.431741038964002e-02
9.622294280808852e-19 -2.574980159653073e-18 9.189988797621507e-02
1.312387267643840e-02 8.744759069533679e-03 9.293444000012301e-02
1.312387267643840e-02 -8.744759069533675e-03 9.293444000012298e-02
1.270632948577325e-02 8.131516293641283e-20 7.228201955256110e-02
1.347362543399035e-02 8.402566836762659e-19 1.126731145552246e-01
1.320817337842915e-02 3.726944967918921e-19 9.250426857957129e-02
-1.517883041479706e-18 8.407511870415055e-03 7.195668959970244e-02
-2.525436284842850e-02 8.335406626078477e-03 7.545935094470246e-02
-2.525436284842850e-02 -8.335406626078481e-03 7.545935094470246e-02
0.000000000000000e+00 -8.407511870415055e-03 7.195668959970243e-02
4.336808689942018e-19 8.956871820690991e-03 1.126053927789349e-01
-2.670231632640693e-02 8.922314835981809e-03 1.143810030723665e-01
-2.670231632640693e-02 -8.922314835981812e-03 1.143810030723665e-01
3.035766082959412e-18 -8.956871820690986e-03 1.126053927789349e-01
-1.258649951946399e-02 8.389485559330908e-03 7.283235493595244e-02
-2.543977574296988e-02 -3.252606517456513e-18 7.491215866327092e-02
-1.258649951946399e-02 -8.389485559330912e-03 7.283235493595244e-02
-3.794707603699266e-19 -1.951563910473908e-18 7.140530651565780e-02
-1.342519382118607e-02 8.948232574513696e-03 1.130492953522928e-01
-2.680118825456953e-02 -2.385244779468110e-18 1.140016330325307e-01
-1.342519382118607e-02 -8.948232574513694e-03 1.130492953522928e-01
2.547875105340935e-18 -2.059984127722458e-18 1.122302750627893e-01
-3.252606517456513e-19 8.758663179743833e-03 9.233005679298924e-02
-2.627374264989893e-02 8.703046738903205e-03 9.474758962152419e-02
-2.627374264989893e-02 -8.703046738903208e-03 9.474758962152417e-02
1.897353801849633e-18 -8.758663179743831e-03 9.233005679298922e-02
9.622294280808852e-19 -2.574980159653073e-18 9.189988797621507e-02
-2.645806090808510e-02 -3.577867169202165e-18 9.431741038964001e-02
-1.312387267643840e-02 8.744759069533675e-03 9.293444000012298e-02
-1.312387267643840e-02 -8.744759069533675e-03 9.293444000012298e-02
-1.270632948577325e-02 -2.818925648462312e-18 7.228201955256107e-02
-1.347362543399035e-02 -2.114194236346734e-18 1.126731145552246e-01
-1.320817337842914e-02 -3.455894424797545e-18 9.250426857957127e-02
2.525436284842851e-02 -8.335406626078481e-03 7.545935094470248e-02
0.000000000000000e+00 -8.407511870415055e-03 7.195668959970243e-02
4.336808689942018e-19 -2.556143495083017e-02 7.490720249775258e-02
2.457090776255630e-02 -2.462224021071000e-02 7.853157122033078e-02
2.670231632640695e-02 -8.922314835981812e-03 1.143810030723665e-01
3.035766082959412e-18 -8.956871820690986e-03 1.126053927789349e-01
4.336808689942018e-18 -2.675806272913939e-02 1.141238786003127e-01
2.658140328921309e-02 -2.644545614567166e-02 1.160315792645802e-01
1.258649951946399e-02 -8.389485559330914e-03 7.283235493595244e-02
7.589415207398531e-19 -1.689974857572636e-02 7.324570090825962e-02
1.244955611391918e-02 -2.532663626580013e-02 7.581329467839712e-02
2.489808618241908e-02 -1.657481833527560e-02 7.677459829504114e-02
1.342519382118607e-02 -8.948232574513694e-03 1.130492953522928e-01
3.361026734705064e-18 -1.788560545814858e-02 1.133601319504250e-01
1.338317753093018e-02 -2.667991108327246e-02 1.146008037663796e-01
2.657321613894590e-02 -1.776425758139519e-02 1.151730171602558e-01
2.627374264989893e-02 -8.703046738903208e-03 9.474758962152419e-02
1.897353801849633e-18 -8.758663179743831e-03 9.233005679298922e-02
2.493664996716660e-18 -2.639131619871053e-02 9.438881865285426e-02
2.598396080634171e-02 -2.579475551690492e-02 9.693933505230287e-02
2.601697893082347e-02 -1.732749730285525e-02 9.572570521110302e-02
1.707618421664669e-18 -1.754615802435742e-02 9.327491607472965e-02
1.312387267643840e-02 -8.744759069533675e-03 9.293444000012298e-02
1.303895972481084e-02 -2.624217602825912e-02 9.502644775271640e-02
1.243243370176853e-02 -1.681851601561367e-02 7.412792525495497e-02
1.336625813581781e-02 -1.785526848896023e-02 1.138133532528827e-01
1.301834373654077e-02 -1.749149284398188e-02 9.388761335882302e-02
0.000000000000000e+00 -8.407511870415055e-03 7.195668959970243e-02
-2.525436284842850e-02 -8.335406626078481e-03 7.545935094470246e-02
-2.457090776255630e-02 -2.462224021070999e-02 7.853157122033075e-02
4.336808689942018e-19 -2.556143495083017e-02 7.490720249775258e-02
3.035766082959412e-18 -8.956871820690986e-03 1.126053927789349e-01
-2.670231632640693e-02 -8.922314835981812e-03 1.143810030723665e-01
-2.658140328921308e-02 -2.644545614567165e-02 1.160315792645802e-01
4.336808689942018e-18 -2.675806272913939e-02 1.141238786003127e-01
-1.258649951946399e-02 -8.389485559330912e-03 7.283235493595244e-02
-2.489808618241907e-02 -1.657481833527560e-02 7.677459829504112e-02
-1.244955611391918e-02 -2.532663626580013e-02 7.581329467839712e-02
7.589415207398531e-19 -1.689974857572636e-02 7.324570090825962e-02
-1.342519382118607e-02 -8.948232574513694e-03 1.130492953522928e-01
-2.657321613894589e-02 -1.776425758139518e-02 1.151730171602557e-01
-1.338317753093017e-02 -2.667991108327246e-02 1.146008037663796e-01
3.361026734705064e-18 -1.788560545814858e-02 1.133601319504250e-01
1.897353801849633e-18 -8.758663179743831e-03 9.233005679298922e-02
-2.627374264989893e-02 -8.703046738903208e-03 9.474758962152417e-02
-2.598396080634170e-02 -2.579475551690490e-02 9.693933505230282e-02
2.493664996716660e-18 -2.639131619871053e-02 9.438881865285426e-02
1.707618421664669e-18 -1.754615802435742e-02 9.327491607472965e-02
-2.601697893082345e-02 -1.732749730285524e-02 9.572570521110300e-02
-1.312387267643840e-02 -8.744759069533675e-03 9.293444000012298e-02
-1.303895972481084e-02 -2.624217602825913e-02 9.502644775271642e-02
-1.243243370176852e-02 -1.681851601561367e-02 7.412792525495500e-02
-1.336625813581780e-02 -1.785526848896023e-02 1.138133532528827e-01
-1.301834373654077e-02 -1.749149284398187e-02 9.388761335882305e-02
2.658140328921309e-02 2.644545614567165e-02 1.160315792645802e-01
-3.903127820947816e-18 2.675806272913940e-02 1.141238786003127e-01
4.336808689942018e-19 8.956871820690991e-03 1.126053927789349e-01
2.670231632640694e-02 8.922314835981824e-03 1.143810030723665e-01
2.744753864110083e-02 2.719356163853905e-02 1.553974853928492e-01
2.602085213965211e-18 2.715378116167291e-02 1.539995169726856e-01
6.505213034913027e-18 9.267271717588890e-03 1.529457005363496e-01
2.731386783187746e-02 9.266345126175565e-03 1.541978243880779e-01
1.338317753093017e-02 2.667991108327247e-02 1.146008037663796e-01
-1.517883041479706e-18 1.788560545814859e-02 1.133601319504250e-01
1.342519382118607e-02 8.948232574513697e-03 1.130492953522928e-01
2.657321613894590e-02 1.776425758139519e-02 1.151730171602557e-01
1.382180367986625e-02 2.716372628088945e-02 1.543490090777265e-01
5.204170427930421e-18 1.837253493740434e-02 1.535176367877370e-01
1.381275231041019e-02 9.267040069735564e-03 1.532587314992817e-01
2.733863191135283e-02 1.838132181735422e-02 1.548193423958723e-01
2.689275572839221e-02 2.682737916391482e-02 1.355902979978625e-01
-2.818925648462312e-18 2.692458192312434e-02 1.340236791152243e-01
2.493664996716660e-18 9.095340448293640e-03 1.328036299094262e-01
2.692178950978797e-02 9.080863453133033e-03 1.342382088202207e-01
2.690202480103836e-02 1.805792410739499e-02 1.349323057020089e-01
2.168404344971009e-19 1.810032104114814e-02 1.334561162749071e-01
1.360364652003078e-02 2.690028123332197e-02 1.344153338358839e-01
1.361373101280924e-02 9.091721199503487e-03 1.331622746371248e-01
1.336625813581781e-02 1.785526848896024e-02 1.138133532528827e-01
1.381090178058297e-02 1.837473165739181e-02 1.538430631897708e-01
1.359187733777382e-02 1.808972180770985e-02 1.338251636316825e-01
-3.903127820947816e-18 2.675806272913940e-02 1.141238786003127e-01
-2.658140328921308e-02 2.644545614567165e-02 1.160315792645802e-01
-2.670231632640693e-02 8.922314835981809e-03 1.143810030723665e-01
4.336808689942018e-19 8.956871820690991e-03 1.126053927789349e-01
2.602085213965211e-18 2.715378116167291e-02 1.539995169726856e-01
-2.744753864110084e-02 2.719356163853904e-02 1.553974853928492e-01
-2.731386783187747e-02 9.266345126175569e-03 1.541978243880779e-01
6.505213034913027e-18 9.267271717588890e-03 1.529457005363496e-01
-1.338317753093018e-02 2.667991108327245e-02 1.146008037663796e-01
-2.657321613894589e-02 1.776425758139517e-02 1.151730171602557e-01
-1.342519382118607e-02 8.948232574513696e-03 1.130492953522928e-01
-1.517883041479706e-18 1.788560545814859e-02 1.133601319504250e-01
-1.382180367986625e-02 2.716372628088944e-02 1.543490090777265e-01
-2.733863191135284e-02 1.838132181735422e-02 1.548193423958723e-01
-1.381275231041018e-02 9.267040069735555e-03 1.532587314992817e-01
5.204170427930421e-18 1.837253493740434e-02 1.535176367877370e-01
-2.818925648462312e-18 2.692458192312434e-02 1.340236791152243e-01
-2.689275572839220e-02 2.682737916391482e-02 1.355902979978625e-01
-2.692178950978796e-02 9.080863453133020e-03 1.342382088202207e-01
2.493664996716660e-18 9.095340448293640e-03 1.328036299094262e-01
2.168404344971009e-19 1.810032104114814e-02 1.334561162749071e-01
-2.690202480103835e-02 1.805792410739498e-02 1.349323057020089e-01
-1.360364652003078e-02 2.690028123332196e-02 1.344153338358839e-01
-1.361373101280924e-02 9.091721199503487e-03 1.331622746371248e-01
-1.336625813581781e-02 1.785526848896023e-02 1.138133532528827e-01
-1.381090178058296e-02 1.837473165739180e-02 1.538430631897708e-01
-1.359187733777382e-02 1.808972180770984e-02 1.338251636316825e-01
2.670231632640694e-02 8.922314835981824e-03 1.143810030723665e-01
4.336808689942018e-19 8.956871820690991e-03 1.126053927789349e-01
3.035766082959412e-18 -8.956871820690986e-03 1.126053927789349e-01
2.670231632640695e-02 -8.922314835981812e-03 1.143810030723665e-01
2.731386783187746e-02 9.266345126175565e-03 1.541978243880779e-01
6.505213034913027e-18 9.267271717588890e-03 1.529457005363496e-01
5.204170427930421e-18 -9.267271717588878e-03 1.529457005363495e-01
2.731386783187748e-02 -9.266345126175564e-03 1.541978243880780e-01
1.342519382118607e-02 8.948232574513697e-03 1.130492953522928e-01
2.547875105340935e-18 -2.059984127722458e-18 1.122302750627893e-01
1.342519382118607e-02 -8.948232574513694e-03 1.130492953522928e-01
2.680118825456953e-02 7.155734338404329e-18 1.140016330325307e-01
1.381275231041019e-02 9.267040069735564e-03 1.532587314992817e-01
6.505213034913027e-18 3.252606517456513e-18 1.526372183940461e-01
1.381275231041020e-02 -9.267040069735550e-03 1.532587314992817e-01
2.732252145470795e-02 -1.301042606982605e-18 1.538762216314765e-01
2.692178950978797e-02 9.080863453133033e-03 1.342382088202207e-01
2.493664996716660e-18 9.095340448293640e-03 1.328036299094262e-01
4.770489558936220e-18 -9.095340448293633e-03 1.328036299094262e-01
2.692178950978798e-02 -9.080863453133019e-03 1.342382088202207e-01
2.693429577318865e-02 7.589415207398531e-18 1.338821342328429e-01
3.794707603699266e-18 -5.421010862427522e-20 1.324561558453948e-01
1.361373101280924e-02 9.091721199503487e-03 1.331622746371248e-01
1.361373101280925e-02 -9.091721199503480e-03 1.331622746371248e-01
1.347362543399035e-02 8.402566836762659e-19 1.126731145552246e-01
1.381686568260143e-02 4.770489558936220e-18 1.529469692034038e-01
1.363306356465006e-02 2.385244779468110e-18 1.328126504422568e-01
4.336808689942018e-19 8.956871820690991e-03 1.126053927789349e-01
-2.670231632640693e-02 8.922314835981809e-03 1.143810030723665e-01
-2.670231632640693e-02 -8.922314835981812e-03 1.143810030723665e-01
3.035766082959412e-18 -8.956871820690986e-03 1.126053927789349e-01
6.505213034913027e-18 9.267271717588890e-03 1.529457005363496e-01
-2.731386783187747e-02 9.266345126175569e-03 1.541978243880779e-01
-2.731386783187745e-02 -9.266345126175565e-03 1.541978243880779e-01
5.204170427930421e-18 -9.267271717588878e-03 1.529457005363495e-01
-1.342519382118607e-02 8.948232574513696e-03 1.130492953522928e-01
-2.680118825456953e-02 -2.385244779468110e-18 1.140016330325307e-01
-1.342519382118607e-02 -8.948232574513694e-03 1.130492953522928e-01
2.547875105340935e-18 -2.059984127722458e-18 1.122302750627893e-01
-1.381275231041018e-02 9.267040069735555e-03 1.532587314992817e-01
-2.732252145470794e-02 4.336808689942018e-19 1.538762216314765e-01
-1.381275231041018e-02 -9.267040069735550e-03 1.532587314992817e-01
6.505213034913027e-18 3.252606517456513e-18 1.526372183940461e-01
2.493664996716660e-18 9.095340448293640e-03 1.328036299094262e-01
-2.692178950978796e-02 9.080863453133020e-03 1.342382088202207e-01
-2.692178950978796e-02 -9.080863453133022e-03 1.342382088202206e-01
4.770489558936220e-18 -9.095340448293633e-03 1.328036299094262e-01
3.794707603699266e-18 -5.421010862427522e-20 1.324561558453948e-01
-2.693429577318864e-02 -1.084202172485504e-18 1.338821342328428e-01
-1.361373101280924e-02 9.091721199503487e-03 1.331622746371248e-01
-1.361373101280924e-02 -9.091721199503482e-03 1.331622746371248e-01
-1.347362543399035e-02 -2.114194236346734e-18 1.126731145552246e-01
-1.381686568260142e-02 0.000000000000000e+00 1.529469692034037e-01
-1.363306356465005e-02 -3.252606517456513e-19 1.328126504422568e-01
2.670231632640695e-02 -8.922314835981812e-03 1.143810030723665e-01
3.035766082959412e-18 -8.956871820690986e-03 1.126053927789349e-01
4.336808689942018e-18 -2.675806272913939e-02 1.141238786003127e-01
2.658140328921309e-02 -2.644545614567166e-02 1.160315792645802e-01
2.731386783187748e-02 -9.266345126175564e-03 1.541978243880780e-01
5.204170427930421e-18 -9.267271717588878e-03 1.529457005363495e-01
3.469446951953614e-18 -2.715378116167289e-02 1.539995169726855e-01
2.744753864110084e-02 -2.719356163853901e-02 1.553974853928491e-01
1.342519382118607e-02 -8.948232574513694e-03 1.130492953522928e-01
3.361026734705064e-18 -1.788560545814858e-02 1.133601319504250e-01
1.338317753093018e-02 -2.667991108327246e-02 1.146008037663796e-01
2.657321613894590e-02 -1.776425758139519e-02 1.151730171602558e-01
1.381275231041020e-02 -9.267040069735550e-03 1.532587314992817e-01
4.336808689942018e-18 -1.837253493740432e-02 1.535176367877370e-01
1.382180367986625e-02 -2.716372628088942e-02 1.543490090777264e-01
2.733863191135285e-02 -1.838132181735421e-02 1.548193423958723e-01
2.692178950978798e-02 -9.080863453133019e-03 1.342382088202207e-01
4.770489558936220e-18 -9.095340448293633e-03 1.328036299094262e-01
5.204170427930421e-18 -2.692458192312433e-02 1.340236791152243e-01
2.689275572839221e-02 -2.682737916391483e-02 1.355902979978625e-01
2.690202480103836e-02 -1.805792410739498e-02 1.349323057020090e-01
4.553649124439119e-18 -1.810032104114813e-02 1.334561162749070e-01
1.361373101280925e-02 -9.091721199503480e-03 1.331622746371248e-01
1.360364652003078e-02 -2.690028123332195e-02 1.344153338358839e-01
1.336625813581781e-02 -1.785526848896023e-02 1.138133532528827e-01
1.381090178058298e-02 -1.837473165739180e-02 1.538430631897708e-01
1.359187733777382e-02 -1.808972180770984e-02 1.338251636316825e-01