<?xml version="1.0" ?> 
<!-- 
# vtk DataFile Version 3.0
-->
<VTKFile type="UnstructuredGrid" version="0.1" compressor="vtkZLibDataCompressor" byte_order="LittleEndian">
  <UnstructuredGrid>
    <FieldData>
      <DataArray type="Float64" Name="TIME" NumberOfTuples="1" format="ascii">
3.000000000000000e+00 
      </DataArray>
    </FieldData>

    <Piece NumberOfPoints="153" NumberOfCells="0" >
      <Points>
        <DataArray type="Float64" NumberOfComponents="3" format="ascii">
8.722604189151506e-01 4.890416762415440e-01 1.000000000000375e+00
1.000000000000000e+00 0.000000000000000e+00 1.000000000000375e+00
1.000000000000000e+00 0.000000000000000e+00 1.500000000000000e+00
8.722604189151504e-01 4.890416762415440e-01 1.500000000000000e+00
9.697620891119340e-01 2.440522288860948e-01 1.000000000000375e+00
1.000000000000000e+00 0.000000000000000e+00 1.250000000000094e+00
9.697620891119342e-01 2.440522288860949e-01 1.500000000000000e+00
8.722604189151507e-01 4.890416762415442e-01 1.250000000000094e+00
9.697620891119341e-01 2.440522288860949e-01 1.250000000000094e+00
4.890416762415440e-01 8.722604189151505e-01 1.000000000000375e+00
8.722604189151506e-01 4.890416762415440e-01 1.000000000000375e+00
8.722604189151504e-01 4.890416762415440e-01 1.500000000000000e+00
4.890416762415440e-01 8.722604189151504e-01 1.500000000000000e+00
7.071067809042735e-01 7.071067809042736e-01 1.000000000000375e+00
8.722604189151507e-01 4.890416762415442e-01 1.250000000000094e+00
7.071067809042735e-01 7.071067809042735e-01 1.500000000000000e+00
4.890416762415440e-01 8.722604189151505e-01 1.250000000000094e+00
7.071067809042737e-01 7.071067809042736e-01 1.250000000000094e+00
0.000000000000000e+00 1.000000000000000e+00 1.000000000000375e+00
4.890416762415440e-01 8.722604189151505e-01 1.000000000000375e+00
4.890416762415440e-01 8.722604189151504e-01 1.500000000000000e+00
0.000000000000000e+00 1.000000000000000e+00 1.500000000000000e+00
2.440522288860949e-01 9.697620891119340e-01 1.000000000000375e+00
4.890416762415440e-01 8.722604189151505e-01 1.250000000000094e+00
2.440522288860949e-01 9.697620891119340e-01 1.500000000000000e+00
0.000000000000000e+00 1.000000000000000e+00 1.250000000000094e+00
2.440522288860949e-01 9.697620891119341e-01 1.250000000000094e+00
8.722604189151506e-01 4.890416762415440e-01 4.999999999996250e-01
1.000000000000000e+00 0.000000000000000e+00 4.999999999996251e-01
1.000000000000000e+00 0.000000000000000e+00 1.000000000000375e+00
8.722604189151506e-01 4.890416762415440e-01 1.000000000000375e+00
9.697620891119340e-01 2.440522288860949e-01 4.999999999996250e-01
1.000000000000000e+00 0.000000000000000e+00 7.500000000000000e-01
9.697620891119340e-01 2.440522288860948e-01 1.000000000000375e+00
8.722604189151506e-01 4.890416762415441e-01 7.500000000000001e-01
9.697620891119342e-01 2.440522288860949e-01 7.500000000000000e-01
4.890416762415442e-01 8.722604189151506e-01 4.999999999996251e-01
8.722604189151506e-01 4.890416762415440e-01 4.999999999996250e-01
8.722604189151506e-01 4.890416762415440e-01 1.000000000000375e+00
4.890416762415440e-01 8.722604189151505e-01 1.000000000000375e+00
7.071067809042734e-01 7.071067809042736e-01 4.999999999996250e-01
8.722604189151506e-01 4.890416762415441e-01 7.500000000000001e-01
7.071067809042735e-01 7.071067809042736e-01 1.000000000000375e+00
4.890416762415440e-01 8.722604189151503e-01 7.499999999999998e-01
7.071067809042734e-01 7.071067809042736e-01 7.499999999999997e-01
0.000000000000000e+00 1.000000000000000e+00 4.999999999996251e-01
4.890416762415442e-01 8.722604189151506e-01 4.999999999996251e-01
4.890416762415440e-01 8.722604189151505e-01 1.000000000000375e+00
0.000000000000000e+00 1.000000000000000e+00 1.000000000000375e+00
2.440522288860949e-01 9.697620891119340e-01 4.999999999996250e-01
4.890416762415440e-01 8.722604189151503e-01 7.499999999999998e-01
2.440522288860949e-01 9.697620891119340e-01 1.000000000000375e+00
0.000000000000000e+00 1.000000000000000e+00 7.500000000000000e-01
2.440522288860949e-01 9.697620891119340e-01 7.499999999999998e-01
8.722604189151504e-01 4.890416762415440e-01 0.000000000000000e+00
1.000000000000000e+00 0.000000000000000e+00 0.000000000000000e+00
1.000000000000000e+00 0.000000000000000e+00 4.999999999996251e-01
8.722604189151506e-01 4.890416762415440e-01 4.999999999996250e-01
9.697620891119342e-01 2.440522288860949e-01 0.000000000000000e+00
1.000000000000000e+00 0.000000000000000e+00 2.499999999999063e-01
9.697620891119340e-01 2.440522288860949e-01 4.999999999996250e-01
8.722604189151505e-01 4.890416762415440e-01 2.499999999999062e-01
9.697620891119341e-01 2.440522288860949e-01 2.499999999999063e-01
0.000000000000000e+00 1.000000000000000e+00 0.000000000000000e+00
4.890416762415440e-01 8.722604189151504e-01 0.000000000000000e+00
4.890416762415442e-01 8.722604189151506e-01 4.999999999996251e-01
0.000000000000000e+00 1.000000000000000e+00 4.999999999996251e-01
2.440522288860949e-01 9.697620891119340e-01 0.000000000000000e+00
4.890416762415440e-01 8.722604189151503e-01 2.499999999999062e-01
2.440522288860949e-01 9.697620891119340e-01 4.999999999996250e-01
0.000000000000000e+00 1.000000000000000e+00 2.499999999999063e-01
2.440522288860949e-01 9.697620891119340e-01 2.499999999999062e-01
4.890416762415440e-01 8.722604189151504e-01 0.000000000000000e+00
8.722604189151504e-01 4.890416762415440e-01 0.000000000000000e+00
8.722604189151506e-01 4.890416762415440e-01 4.999999999996250e-01
4.890416762415442e-01 8.722604189151506e-01 4.999999999996251e-01
7.071067809042735e-01 7.071067809042735e-01 0.000000000000000e+00
8.722604189151505e-01 4.890416762415440e-01 2.499999999999062e-01
7.071067809042734e-01 7.071067809042736e-01 4.999999999996250e-01
4.890416762415440e-01 8.722604189151503e-01 2.499999999999062e-01
7.071067809042734e-01 7.071067809042735e-01 2.499999999999062e-01
1.500000000000000e+00 3.000000000000000e-01 3.000000000000000e+00
2.000000000000000e+00 3.000000000000000e-01 3.000000000000000e+00
2.000000000000000e+00 3.000000000000000e-01 3.500000000000000e+00
1.500000000000000e+00 3.000000000000000e-01 3.500000000000000e+00
1.750000000000000e+00 2.999999999999999e-01 3.000000000000000e+00
2.000000000000000e+00 3.000000000000000e-01 3.250000000000000e+00
1.750000000000000e+00 3.000000000000000e-01 3.500000000000000e+00
1.500000000000000e+00 3.000000000000000e-01 3.250000000000000e+00
1.750000000000000e+00 3.000000000000000e-01 3.250000000000000e+00
1.000000000000000e+00 3.000000000000000e-01 3.000000000000000e+00
1.500000000000000e+00 3.000000000000000e-01 3.000000000000000e+00
1.500000000000000e+00 3.000000000000000e-01 3.500000000000000e+00
1.000000000000000e+00 3.000000000000000e-01 3.500000000000000e+00
1.250000000000000e+00 2.999999999999999e-01 3.000000000000000e+00
1.500000000000000e+00 3.000000000000000e-01 3.250000000000000e+00
1.250000000000000e+00 2.999999999999999e-01 3.500000000000000e+00
1.000000000000000e+00 3.000000000000000e-01 3.250000000000000e+00
1.250000000000000e+00 3.000000000000000e-01 3.250000000000000e+00
5.000000000000000e-01 3.000000000000000e-01 3.000000000000000e+00
1.000000000000000e+00 3.000000000000000e-01 3.000000000000000e+00
1.000000000000000e+00 3.000000000000000e-01 3.500000000000000e+00
5.000000000000000e-01 3.000000000000000e-01 3.500000000000000e+00
7.500000000000000e-01 2.999999999999999e-01 3.000000000000000e+00
1.000000000000000e+00 3.000000000000000e-01 3.250000000000000e+00
7.500000000000000e-01 2.999999999999999e-01 3.500000000000000e+00
5.000000000000000e-01 3.000000000000000e-01 3.250000000000000e+00
7.500000000000000e-01 3.000000000000000e-01 3.250000000000000e+00
0.000000000000000e+00 3.000000000000000e-01 3.000000000000000e+00
5.000000000000000e-01 3.000000000000000e-01 3.000000000000000e+00
5.000000000000000e-01 3.000000000000000e-01 3.500000000000000e+00
0.000000000000000e+00 3.000000000000000e-01 3.500000000000000e+00
2.500000000000000e-01 3.000000000000000e-01 3.000000000000000e+00
5.000000000000000e-01 3.000000000000000e-01 3.250000000000000e+00
2.500000000000000e-01 3.000000000000000e-01 3.500000000000000e+00
0.000000000000000e+00 3.000000000000000e-01 3.250000000000000e+00
2.500000000000000e-01 3.000000000000000e-01 3.250000000000000e+00
1.500000000000000e+00 3.000000000000000e-01 2.500000000000000e+00
2.000000000000000e+00 3.000000000000000e-01 2.500000000000000e+00
2.000000000000000e+00 3.000000000000000e-01 3.000000000000000e+00
1.500000000000000e+00 3.000000000000000e-01 3.000000000000000e+00
1.750000000000000e+00 3.000000000000000e-01 2.500000000000000e+00
2.000000000000000e+00 3.000000000000000e-01 2.750000000000000e+00
1.750000000000000e+00 2.999999999999999e-01 3.000000000000000e+00
1.500000000000000e+00 3.000000000000000e-01 2.750000000000000e+00
1.750000000000000e+00 3.000000000000000e-01 2.750000000000000e+00
1.000000000000000e+00 3.000000000000000e-01 2.500000000000000e+00
1.500000000000000e+00 3.000000000000000e-01 2.500000000000000e+00
1.500000000000000e+00 3.000000000000000e-01 3.000000000000000e+00
1.000000000000000e+00 3.000000000000000e-01 3.000000000000000e+00
1.250000000000000e+00 2.999999999999999e-01 2.500000000000000e+00
1.500000000000000e+00 3.000000000000000e-01 2.750000000000000e+00
1.250000000000000e+00 2.999999999999999e-01 3.000000000000000e+00
1.000000000000000e+00 3.000000000000000e-01 2.750000000000000e+00
1.250000000000000e+00 3.000000000000000e-01 2.750000000000000e+00
5.000000000000000e-01 3.000000000000000e-01 2.500000000000000e+00
1.000000000000000e+00 3.000000000000000e-01 2.500000000000000e+00
1.000000000000000e+00 3.000000000000000e-01 3.000000000000000e+00
5.000000000000000e-01 3.000000000000000e-01 3.000000000000000e+00
7.500000000000000e-01 2.999999999999999e-01 2.500000000000000e+00
1.000000000000000e+00 3.000000000000000e-01 2.750000000000000e+00
7.500000000000000e-01 2.999999999999999e-01 3.000000000000000e+00
5.000000000000000e-01 3.000000000000000e-01 2.750000000000000e+00
7.500000000000000e-01 3.000000000000000e-01 2.750000000000000e+00
0.000000000000000e+00 3.000000000000000e-01 2.500000000000000e+00
5.000000000000000e-01 3.000000000000000e-01 2.500000000000000e+00
5.000000000000000e-01 3.000000000000000e-01 3.000000000000000e+00
0.000000000000000e+00 3.000000000000000e-01 3.000000000000000e+00
2.500000000000000e-01 3.000000000000000e-01 2.500000000000000e+00
5.000000000000000e-01 3.000000000000000e-01 2.750000000000000e+00
2.500000000000000e-01 3.000000000000000e-01 3.000000000000000e+00
0.000000000000000e+00 3.000000000000000e-01 2.750000000000000e+00
2.500000000000000e-01 3.000000000000000e-01 2.750000000000000e+00
        </DataArray>
      </Points>

      <Cells>
        <DataArray type="Int32" Name="connectivity" format="ascii">
0 1 2 3 4 5 6 7 8 9 10 11 12 13 14 15 16 17 18 19 20 21 22 23 24 25 26 27 28 29 30 31 32 33 34 35 36 37 38 39 40 41 42 43 44 45 46 47 48 49 50 51 52 53 54 55 56 57 58 59 60 61 62 63 64 65 66 67 68 69 70 71 72 73 74 75 76 77 78 79 80 81 82 83 84 85 86 87 88 89 90 91 92 93 94 95 96 97 98 99 100 101 102 103 104 105 106 107 108 109 110 111 112 113 114 115 116 117 118 119 120 121 122 123 124 125 126 127 128 129 130 131 132 133 134 135 136 137 138 139 140 141 142 143 144 145 146 147 148 149 150 151 152 
        </DataArray>
        <DataArray type="Int32" Name="offsets" format="ascii">

        </DataArray>
        <DataArray type="UInt8" Name="types" format="ascii">

        </DataArray>
      </Cells>

  <PointData>
        <DataArray type="Float64" Name="coupling_id" format="ascii">
1.000000000000000e+00
1.000000000000000e+00
1.000000000000000e+00
1.000000000000000e+00
1.000000000000000e+00
1.000000000000000e+00
1.000000000000000e+00
1.000000000000000e+00
1.000000000000000e+00
1.000000000000000e+00
1.000000000000000e+00
1.000000000000000e+00
1.000000000000000e+00
1.000000000000000e+00
1.000000000000000e+00
1.000000000000000e+00
1.000000000000000e+00
1.000000000000000e+00
1.000000000000000e+00
1.000000000000000e+00
1.000000000000000e+00
1.000000000000000e+00
1.000000000000000e+00
1.000000000000000e+00
1.000000000000000e+00
1.000000000000000e+00
1.000000000000000e+00
1.000000000000000e+00
1.000000000000000e+00
1.000000000000000e+00
1.000000000000000e+00
1.000000000000000e+00
1.000000000000000e+00
1.000000000000000e+00
1.000000000000000e+00
1.000000000000000e+00
1.000000000000000e+00
1.000000000000000e+00
1.000000000000000e+00
1.000000000000000e+00
1.000000000000000e+00
1.000000000000000e+00
1.000000000000000e+00
1.000000000000000e+00
1.000000000000000e+00
1.000000000000000e+00
1.000000000000000e+00
1.000000000000000e+00
1.000000000000000e+00
1.000000000000000e+00
1.000000000000000e+00
1.000000000000000e+00
1.000000000000000e+00
1.000000000000000e+00
1.000000000000000e+00
1.000000000000000e+00
1.000000000000000e+00
1.000000000000000e+00
1.000000000000000e+00
1.000000000000000e+00
1.000000000000000e+00
1.000000000000000e+00
1.000000000000000e+00
1.000000000000000e+00
1.000000000000000e+00
1.000000000000000e+00
1.000000000000000e+00
1.000000000000000e+00
1.000000000000000e+00
1.000000000000000e+00
1.000000000000000e+00
1.000000000000000e+00
1.000000000000000e+00
1.000000000000000e+00
1.000000000000000e+00
1.000000000000000e+00
1.000000000000000e+00
1.000000000000000e+00
1.000000000000000e+00
1.000000000000000e+00
1.000000000000000e+00
2.000000000000000e+00
2.000000000000000e+00
2.000000000000000e+00
2.000000000000000e+00
2.000000000000000e+00
2.000000000000000e+00
2.000000000000000e+00
2.000000000000000e+00
2.000000000000000e+00
2.000000000000000e+00
2.000000000000000e+00
2.000000000000000e+00
2.000000000000000e+00
2.000000000000000e+00
2.000000000000000e+00
2.000000000000000e+00
2.000000000000000e+00
2.000000000000000e+00
2.000000000000000e+00
2.000000000000000e+00
2.000000000000000e+00
2.000000000000000e+00
2.000000000000000e+00
2.000000000000000e+00
2.000000000000000e+00
2.000000000000000e+00
2.000000000000000e+00
2.000000000000000e+00
2.000000000000000e+00
2.000000000000000e+00
2.000000000000000e+00
2.000000000000000e+00
2.000000000000000e+00
2.000000000000000e+00
2.000000000000000e+00
2.000000000000000e+00
2.000000000000000e+00
2.000000000000000e+00
2.000000000000000e+00
2.000000000000000e+00
2.000000000000000e+00
2.000000000000000e+00
2.000000000000000e+00
2.000000000000000e+00
2.000000000000000e+00
2.000000000000000e+00
2.000000000000000e+00
2.000000000000000e+00
2.000000000000000e+00
2.000000000000000e+00
2.000000000000000e+00
2.000000000000000e+00
2.000000000000000e+00
2.000000000000000e+00
2.000000000000000e+00
2.000000000000000e+00
2.000000000000000e+00
2.000000000000000e+00
2.000000000000000e+00
2.000000000000000e+00
2.000000000000000e+00
2.000000000000000e+00
2.000000000000000e+00
2.000000000000000e+00
2.000000000000000e+00
2.000000000000000e+00
2.000000000000000e+00
2.000000000000000e+00
2.000000000000000e+00
2.000000000000000e+00
2.000000000000000e+00
2.000000000000000e+00
        </DataArray>
        <DataArray type="Float64" Name="displacement" NumberOfComponents="3" format="ascii">
5.580661122767117e-02 1.530143062382656e-01 -7.529800360246419e-04
1.844100251977534e-01 2.103347493783288e-01 -1.576980641435943e-02
1.432213250799130e-01 1.530326582045670e-01 -2.515071000709379e-02
3.588945370880459e-02 1.056786797376651e-01 -2.568491513803339e-03
1.165172689525947e-01 1.918349323682536e-01 -3.413716362469121e-03
1.618183152047930e-01 1.794661384015046e-01 -2.312971938993269e-02
8.545470183061521e-02 1.383372887008890e-01 -1.019995713345545e-02
4.633237839478521e-02 1.284330003505446e-01 -1.847527869722532e-03
1.009831821646439e-01 1.625967670305414e-01 -8.068487786998979e-03
-8.901013233776844e-03 5.215907159358424e-02 -3.557435900833017e-03
5.580661122767117e-02 1.530143062382656e-01 -7.529800360246419e-04
3.588945370880459e-02 1.056786797376651e-01 -2.568491513803339e-03
-7.509818162664550e-03 2.886428393348806e-02 2.164584291378002e-03
1.164825673177639e-02 1.023277214948927e-01 -3.002156669186462e-03
4.633237839478521e-02 1.284330003505446e-01 -1.847527869722532e-03
2.924749017721329e-03 6.482967072749291e-02 2.365562670592070e-04
-8.323504982389152e-03 4.288726411765631e-02 -4.380393131460103e-04
7.414790549854944e-03 8.481721138238418e-02 -1.026511011008369e-03
0.000000000000000e+00 0.000000000000000e+00 0.000000000000000e+00
-8.901013233776844e-03 5.215907159358424e-02 -3.557435900833017e-03
-7.509818162664550e-03 2.886428393348806e-02 2.164584291378002e-03
0.000000000000000e+00 0.000000000000000e+00 0.000000000000000e+00
-1.025471383267249e-02 1.522430550696929e-02 -2.441390155731860e-03
-8.323504982389152e-03 4.288726411765631e-02 -4.380393131460103e-04
-4.888075375068024e-03 5.775091217604889e-03 2.246544064783862e-03
0.000000000000000e+00 0.000000000000000e+00 0.000000000000000e+00
-7.743662008639601e-03 1.250672205508652e-02 -1.057008504230517e-04
8.042511258029694e-02 1.984264668664141e-01 -6.646298968702724e-04
2.489775818551503e-01 2.822322819200511e-01 4.719952550499174e-03
1.844100251977534e-01 2.103347493783288e-01 -1.576980641435943e-02
5.580661122767117e-02 1.530143062382656e-01 -7.529800360246419e-04
1.615604883737790e-01 2.525593283301902e-01 4.660425116143452e-03
2.128464493256397e-01 2.448522206971928e-01 -5.632679595740098e-03
1.165172689525947e-01 1.918349323682536e-01 -3.413716362469121e-03
6.645618001901021e-02 1.771147456579119e-01 -9.022253698087734e-05
1.355465188153703e-01 2.228797857796565e-01 1.563030238975971e-03
-8.576598720466622e-03 6.262744721451485e-02 -6.792160770146882e-03
8.042511258029694e-02 1.984264668664141e-01 -6.646298968702724e-04
5.580661122767117e-02 1.530143062382656e-01 -7.529800360246419e-04
-8.901013233776844e-03 5.215907159358424e-02 -3.557435900833017e-03
1.979606325789296e-02 1.301149187700363e-01 -6.379723223284062e-03
6.645618001901021e-02 1.771147456579119e-01 -9.022253698087734e-05
1.164825673177639e-02 1.023277214948927e-01 -3.002156669186462e-03
-9.049619089059546e-03 5.822427605973146e-02 -6.055008657800509e-03
1.573779761671945e-02 1.174105182343620e-01 -5.012515731830924e-03
0.000000000000000e+00 0.000000000000000e+00 0.000000000000000e+00
-8.576598720466622e-03 6.262744721451485e-02 -6.792160770146882e-03
-8.901013233776844e-03 5.215907159358424e-02 -3.557435900833017e-03
0.000000000000000e+00 0.000000000000000e+00 0.000000000000000e+00
-1.153689462384447e-02 1.502378134552262e-02 -3.876469399651694e-03
-9.049619089059546e-03 5.822427605973146e-02 -6.055008657800509e-03
-1.025471383267249e-02 1.522430550696929e-02 -2.441390155731860e-03
0.000000000000000e+00 0.000000000000000e+00 0.000000000000000e+00
-1.174465124010077e-02 1.552945434615016e-02 -3.963865716894999e-03
1.184221642661565e-01 2.401491731320384e-01 9.619692866179783e-03
3.787262817542421e-01 3.629077592282983e-01 3.726213633546100e-02
2.489775818551503e-01 2.822322819200511e-01 4.719952550499174e-03
8.042511258029694e-02 1.984264668664141e-01 -6.646298968702724e-04
2.485818630347060e-01 3.171636631759324e-01 2.496385789633577e-02
3.014040001950249e-01 3.218068293344825e-01 1.808569090174869e-02
1.615604883737790e-01 2.525593283301902e-01 4.660425116143452e-03
9.773868272486885e-02 2.188158244842554e-01 1.309955899215953e-03
1.980689967420786e-01 2.832088556016320e-01 1.081514281870236e-02
0.000000000000000e+00 0.000000000000000e+00 0.000000000000000e+00
-1.369043742094467e-02 6.366550624101053e-02 -8.423187819133688e-03
-8.576598720466622e-03 6.262744721451485e-02 -6.792160770146882e-03
0.000000000000000e+00 0.000000000000000e+00 0.000000000000000e+00
-1.085051929509001e-02 9.519606571926298e-03 -6.531832408285624e-03
-9.463141655321972e-03 6.467303922068435e-02 -7.128388427411592e-03
-1.153689462384447e-02 1.502378134552262e-02 -3.876469399651694e-03
0.000000000000000e+00 0.000000000000000e+00 0.000000000000000e+00
-1.083699897760812e-02 1.319219569185892e-02 -4.094144023588098e-03
-1.369043742094467e-02 6.366550624101053e-02 -8.423187819133688e-03
1.184221642661565e-01 2.401491731320384e-01 9.619692866179783e-03
8.042511258029694e-02 1.984264668664141e-01 -6.646298968702724e-04
-8.576598720466622e-03 6.262744721451485e-02 -6.792160770146882e-03
2.092071149803432e-02 1.482551079491756e-01 -3.394962233924942e-03
9.773868272486885e-02 2.188158244842554e-01 1.309955899215953e-03
1.979606325789296e-02 1.301149187700363e-01 -6.379723223284062e-03
-9.463141655321972e-03 6.467303922068435e-02 -7.128388427411592e-03
2.209853932756689e-02 1.404075672816929e-01 -6.156348828871366e-03
-2.055770635721834e-01 5.598501637693136e-01 4.812498790302033e-02
-3.078151907469924e-01 8.534159152875895e-01 3.883566423818774e-02
-3.869199333938336e-01 9.733202543335826e-01 1.517516451664358e-02
-2.688403628549580e-01 6.317871219838365e-01 3.774900768050360e-02
-2.563970496164951e-01 7.049971888551995e-01 4.439650713159438e-02
-3.476364419869769e-01 9.072991538985702e-01 2.757751155304611e-02
-3.243999432022275e-01 8.021298325953008e-01 2.917563349501373e-02
-2.349994780751665e-01 5.961890821496982e-01 4.499216842321685e-02
-2.887202287877895e-01 7.514071948706786e-01 3.892128248595350e-02
-1.163809896273837e-01 2.918335171672491e-01 3.842622414126762e-02
-2.055770635721834e-01 5.598501637693136e-01 4.812498790302033e-02
-2.688403628549580e-01 6.317871219838365e-01 3.774900768050360e-02
-1.695899225312008e-01 3.232481751919176e-01 3.649904895131684e-02
-1.580175908353740e-01 4.210904149124809e-01 4.710644681779952e-02
-2.349994780751665e-01 5.961890821496982e-01 4.499216842321685e-02
-2.179880650614683e-01 4.696929577618291e-01 4.036643139273188e-02
-1.424499968742305e-01 3.115664248058426e-01 3.814605411901439e-02
-1.863005980402621e-01 4.475928230299722e-01 4.499786156688668e-02
-5.137586429920210e-02 8.832079231395307e-02 1.255492772171696e-02
-1.163809896273837e-01 2.918335171672491e-01 3.842622414126762e-02
-1.695899225312008e-01 3.232481751919176e-01 3.649904895131684e-02
-8.154141330267084e-02 9.533230437397516e-02 2.325578565571185e-02
-8.079212557354765e-02 1.787025998592097e-01 2.570286830028579e-02
-1.424499968742305e-01 3.115664248058426e-01 3.814605411901439e-02
-1.239922627747403e-01 1.969591616155003e-01 2.963334036829712e-02
-6.776917452473685e-02 9.771532224790830e-02 1.682262508856480e-02
-1.030665604210595e-01 1.932329152781934e-01 2.767491798957966e-02
0.000000000000000e+00 0.000000000000000e+00 0.000000000000000e+00
-5.137586429920210e-02 8.832079231395307e-02 1.255492772171696e-02
-8.154141330267084e-02 9.533230437397516e-02 2.325578565571185e-02
0.000000000000000e+00 0.000000000000000e+00 0.000000000000000e+00
-2.536691828210130e-02 2.673696790353219e-02 2.736079317606777e-03
-6.776917452473685e-02 9.771532224790830e-02 1.682262508856480e-02
-4.071733781206621e-02 2.685133874344198e-02 1.437510035309941e-02
0.000000000000000e+00 0.000000000000000e+00 0.000000000000000e+00
-3.419970058460337e-02 3.123167429512969e-02 7.095533173019142e-03
-1.450275414724052e-01 4.843298190651226e-01 5.356112272867763e-02
-2.367735046647659e-01 7.622439075723650e-01 5.627400248207115e-02
-3.078151907469924e-01 8.534159152875895e-01 3.883566423818774e-02
-2.055770635721834e-01 5.598501637693136e-01 4.812498790302033e-02
-1.890198206937574e-01 6.205806232334825e-01 5.498939286721027e-02
-2.700097036481617e-01 8.067157595093009e-01 4.853827655391374e-02
-2.563970496164951e-01 7.049971888551995e-01 4.439650713159438e-02
-1.768330933649493e-01 5.226153987665119e-01 5.002284603360874e-02
-2.242302866109493e-01 6.617662023693166e-01 4.871473480199384e-02
-6.425400098128620e-02 2.300738877774745e-01 3.730933451080976e-02
-1.450275414724052e-01 4.843298190651226e-01 5.356112272867763e-02
-2.055770635721834e-01 5.598501637693136e-01 4.812498790302033e-02
-1.163809896273837e-01 2.918335171672491e-01 3.842622414126762e-02
-1.037783679263635e-01 3.539935542016612e-01 4.874812547402652e-02
-1.768330933649493e-01 5.226153987665119e-01 5.002284603360874e-02
-1.580175908353740e-01 4.210904149124809e-01 4.710644681779952e-02
-9.058246844496665e-02 2.645143666873791e-01 3.794537795841846e-02
-1.311673964597568e-01 3.899644273296215e-01 4.794044787650220e-02
-1.209490936360835e-02 5.006435631557982e-02 1.012830339428294e-02
-6.425400098128620e-02 2.300738877774745e-01 3.730933451080976e-02
-1.163809896273837e-01 2.918335171672491e-01 3.842622414126762e-02
-5.137586429920210e-02 8.832079231395307e-02 1.255492772171696e-02
-3.188324625456929e-02 1.247158213097262e-01 2.313823282292837e-02
-9.058246844496665e-02 2.645143666873791e-01 3.794537795841846e-02
-8.079212557354765e-02 1.787025998592097e-01 2.570286830028579e-02
-3.270370259063615e-02 7.111503139541003e-02 1.035578875651044e-02
-5.709050519658943e-02 1.552397302419277e-01 2.407227775865461e-02
0.000000000000000e+00 0.000000000000000e+00 0.000000000000000e+00
-1.209490936360835e-02 5.006435631557982e-02 1.012830339428294e-02
-5.137586429920210e-02 8.832079231395307e-02 1.255492772171696e-02
0.000000000000000e+00 0.000000000000000e+00 0.000000000000000e+00
-2.322618036164792e-03 7.899185108012186e-03 1.381555896198261e-03
-3.270370259063615e-02 7.111503139541003e-02 1.035578875651044e-02
-2.536691828210130e-02 2.673696790353219e-02 2.736079317606777e-03
0.000000000000000e+00 0.000000000000000e+00 0.000000000000000e+00
-1.461066580060633e-02 1.756140852303212e-02 9.477498657144423e-04
        </DataArray>
        <DataArray type="Float64" Name="normal_averaged" NumberOfComponents="3" format="ascii">
0.000000000000000e+00 0.000000000000000e+00 0.000000000000000e+00
0.000000000000000e+00 0.000000000000000e+00 0.000000000000000e+00
0.000000000000000e+00 0.000000000000000e+00 0.000000000000000e+00
0.000000000000000e+00 0.000000000000000e+00 0.000000000000000e+00
0.000000000000000e+00 0.000000000000000e+00 0.000000000000000e+00
0.000000000000000e+00 0.000000000000000e+00 0.000000000000000e+00
0.000000000000000e+00 0.000000000000000e+00 0.000000000000000e+00
0.000000000000000e+00 0.000000000000000e+00 0.000000000000000e+00
0.000000000000000e+00 0.000000000000000e+00 0.000000000000000e+00
0.000000000000000e+00 0.000000000000000e+00 0.000000000000000e+00
0.000000000000000e+00 0.000000000000000e+00 0.000000000000000e+00
0.000000000000000e+00 0.000000000000000e+00 0.000000000000000e+00
0.000000000000000e+00 0.000000000000000e+00 0.000000000000000e+00
0.000000000000000e+00 0.000000000000000e+00 0.000000000000000e+00
0.000000000000000e+00 0.000000000000000e+00 0.000000000000000e+00
0.000000000000000e+00 0.000000000000000e+00 0.000000000000000e+00
0.000000000000000e+00 0.000000000000000e+00 0.000000000000000e+00
0.000000000000000e+00 0.000000000000000e+00 0.000000000000000e+00
0.000000000000000e+00 0.000000000000000e+00 0.000000000000000e+00
0.000000000000000e+00 0.000000000000000e+00 0.000000000000000e+00
0.000000000000000e+00 0.000000000000000e+00 0.000000000000000e+00
0.000000000000000e+00 0.000000000000000e+00 0.000000000000000e+00
0.000000000000000e+00 0.000000000000000e+00 0.000000000000000e+00
0.000000000000000e+00 0.000000000000000e+00 0.000000000000000e+00
0.000000000000000e+00 0.000000000000000e+00 0.000000000000000e+00
0.000000000000000e+00 0.000000000000000e+00 0.000000000000000e+00
0.000000000000000e+00 0.000000000000000e+00 0.000000000000000e+00
0.000000000000000e+00 0.000000000000000e+00 0.000000000000000e+00
0.000000000000000e+00 0.000000000000000e+00 0.000000000000000e+00
0.000000000000000e+00 0.000000000000000e+00 0.000000000000000e+00
0.000000000000000e+00 0.000000000000000e+00 0.000000000000000e+00
0.000000000000000e+00 0.000000000000000e+00 0.000000000000000e+00
0.000000000000000e+00 0.000000000000000e+00 0.000000000000000e+00
0.000000000000000e+00 0.000000000000000e+00 0.000000000000000e+00
0.000000000000000e+00 0.000000000000000e+00 0.000000000000000e+00
0.000000000000000e+00 0.000000000000000e+00 0.000000000000000e+00
0.000000000000000e+00 0.000000000000000e+00 0.000000000000000e+00
0.000000000000000e+00 0.000000000000000e+00 0.000000000000000e+00
0.000000000000000e+00 0.000000000000000e+00 0.000000000000000e+00
0.000000000000000e+00 0.000000000000000e+00 0.000000000000000e+00
0.000000000000000e+00 0.000000000000000e+00 0.000000000000000e+00
0.000000000000000e+00 0.000000000000000e+00 0.000000000000000e+00
0.000000000000000e+00 0.000000000000000e+00 0.000000000000000e+00
0.000000000000000e+00 0.000000000000000e+00 0.000000000000000e+00
0.000000000000000e+00 0.000000000000000e+00 0.000000000000000e+00
0.000000000000000e+00 0.000000000000000e+00 0.000000000000000e+00
0.000000000000000e+00 0.000000000000000e+00 0.000000000000000e+00
0.000000000000000e+00 0.000000000000000e+00 0.000000000000000e+00
0.000000000000000e+00 0.000000000000000e+00 0.000000000000000e+00
0.000000000000000e+00 0.000000000000000e+00 0.000000000000000e+00
0.000000000000000e+00 0.000000000000000e+00 0.000000000000000e+00
0.000000000000000e+00 0.000000000000000e+00 0.000000000000000e+00
0.000000000000000e+00 0.000000000000000e+00 0.000000000000000e+00
0.000000000000000e+00 0.000000000000000e+00 0.000000000000000e+00
0.000000000000000e+00 0.000000000000000e+00 0.000000000000000e+00
0.000000000000000e+00 0.000000000000000e+00 0.000000000000000e+00
0.000000000000000e+00 0.000000000000000e+00 0.000000000000000e+00
0.000000000000000e+00 0.000000000000000e+00 0.000000000000000e+00
0.000000000000000e+00 0.000000000000000e+00 0.000000000000000e+00
0.000000000000000e+00 0.000000000000000e+00 0.000000000000000e+00
0.000000000000000e+00 0.000000000000000e+00 0.000000000000000e+00
0.000000000000000e+00 0.000000000000000e+00 0.000000000000000e+00
0.000000000000000e+00 0.000000000000000e+00 0.000000000000000e+00
0.000000000000000e+00 0.000000000000000e+00 0.000000000000000e+00
0.000000000000000e+00 0.000000000000000e+00 0.000000000000000e+00
0.000000000000000e+00 0.000000000000000e+00 0.000000000000000e+00
0.000000000000000e+00 0.000000000000000e+00 0.000000000000000e+00
0.000000000000000e+00 0.000000000000000e+00 0.000000000000000e+00
0.000000000000000e+00 0.000000000000000e+00 0.000000000000000e+00
0.000000000000000e+00 0.000000000000000e+00 0.000000000000000e+00