<?xml version="1.0" ?> 
<!-- 
# vtk DataFile Version 3.0
-->
<VTKFile type="UnstructuredGrid" version="0.1" compressor="vtkZLibDataCompressor" byte_order="LittleEndian">
  <UnstructuredGrid>
    <FieldData>
      <DataArray type="Float64" Name="TIME" NumberOfTuples="1" format="ascii">
1.000000000000000e+00 
      </DataArray>
    </FieldData>

    <Piece NumberOfPoints="90" NumberOfCells="15" >
      <Points>
        <DataArray type="Float64" NumberOfComponents="3" format="ascii">
-4.500000000000000e+00 3.000000000000000e-01 0.000000000000000e+00
-4.399999999999999e+00 3.000000000000000e-01 0.000000000000000e+00
-4.300000000000000e+00 3.000000000000000e-01 0.000000000000000e+00
-4.200000000000001e+00 3.000000000000000e-01 0.000000000000000e+00
-4.100000000000001e+00 3.000000000000000e-01 0.000000000000000e+00
-4.000000000000000e+00 3.000000000000000e-01 0.000000000000000e+00
-4.000000000000000e+00 3.000000000000000e-01 0.000000000000000e+00
-3.871428571428000e+00 3.000000000000000e-01 0.000000000000000e+00
-3.742857142856000e+00 3.000000000000000e-01 0.000000000000000e+00
-3.614285714284000e+00 3.000000000000000e-01 0.000000000000000e+00
-3.485714285712000e+00 3.000000000000000e-01 0.000000000000000e+00
-3.357142857140000e+00 3.000000000000000e-01 0.000000000000000e+00
-3.357142857140000e+00 3.000000000000000e-01 0.000000000000000e+00
-3.285714285712000e+00 3.000000000000000e-01 0.000000000000000e+00
-3.214285714284001e+00 3.000000000000000e-01 0.000000000000000e+00
-3.142857142856000e+00 3.000000000000000e-01 0.000000000000000e+00
-3.071428571428000e+00 3.000000000000000e-01 0.000000000000000e+00
-3.000000000000000e+00 3.000000000000000e-01 0.000000000000000e+00
-3.000000000000000e+00 3.000000000000000e-01 0.000000000000000e+00
-2.842857142858000e+00 3.000000000000000e-01 0.000000000000000e+00
-2.685714285716000e+00 3.000000000000000e-01 0.000000000000000e+00
-2.528571428574000e+00 3.000000000000000e-01 0.000000000000000e+00
-2.371428571432000e+00 3.000000000000000e-01 0.000000000000000e+00
-2.214285714290000e+00 3.000000000000000e-01 0.000000000000000e+00
-2.214285714290000e+00 3.000000000000000e-01 0.000000000000000e+00
-2.171428571432000e+00 2.999999999999999e-01 0.000000000000000e+00
-2.128571428574000e+00 3.000000000000000e-01 0.000000000000000e+00
-2.085714285716000e+00 3.000000000000000e-01 0.000000000000000e+00
-2.042857142858000e+00 3.000000000000000e-01 0.000000000000000e+00
-2.000000000000000e+00 3.000000000000000e-01 0.000000000000000e+00
-2.000000000000000e+00 3.000000000000000e-01 0.000000000000000e+00
-1.814285714286000e+00 3.000000000000000e-01 0.000000000000000e+00
-1.628571428572000e+00 3.000000000000000e-01 0.000000000000000e+00
-1.442857142858000e+00 3.000000000000000e-01 0.000000000000000e+00
-1.257142857144000e+00 3.000000000000000e-01 0.000000000000000e+00
-1.071428571430000e+00 3.000000000000000e-01 0.000000000000000e+00
-1.071428571430000e+00 3.000000000000000e-01 0.000000000000000e+00
-1.057142857144000e+00 3.000000000000000e-01 0.000000000000000e+00
-1.042857142858000e+00 3.000000000000000e-01 0.000000000000000e+00
-1.028571428572000e+00 3.000000000000000e-01 0.000000000000000e+00
-1.014285714286000e+00 3.000000000000000e-01 0.000000000000000e+00
-1.000000000000000e+00 3.000000000000000e-01 0.000000000000000e+00
-1.000000000000000e+00 3.000000000000000e-01 0.000000000000000e+00
-7.999999999999999e-01 3.000000000000000e-01 0.000000000000000e+00
-5.999999999999999e-01 3.000000000000000e-01 0.000000000000000e+00
-4.000000000000000e-01 3.000000000000000e-01 0.000000000000000e+00
-2.000000000000000e-01 3.000000000000000e-01 0.000000000000000e+00
-6.938893903907228e-17 3.000000000000000e-01 0.000000000000000e+00
2.775557561562891e-17 3.000000000000000e-01 0.000000000000000e+00
1.428571428572004e-02 3.000000000000000e-01 0.000000000000000e+00
2.857142857144009e-02 3.000000000000000e-01 0.000000000000000e+00
4.285714285715996e-02 3.000000000000000e-01 0.000000000000000e+00
5.714285714287998e-02 3.000000000000000e-01 0.000000000000000e+00
7.142857142860000e-02 3.000000000000000e-01 0.000000000000000e+00
7.142857142860000e-02 3.000000000000000e-01 0.000000000000000e+00
2.571428571428799e-01 3.000000000000000e-01 0.000000000000000e+00
4.428571428571599e-01 3.000000000000000e-01 0.000000000000000e+00
6.285714285714400e-01 3.000000000000000e-01 0.000000000000000e+00
8.142857142857198e-01 3.000000000000000e-01 0.000000000000000e+00
9.999999999999999e-01 3.000000000000000e-01 0.000000000000000e+00
9.999999999999999e-01 3.000000000000000e-01 0.000000000000000e+00
1.042857142858000e+00 3.000000000000000e-01 0.000000000000000e+00
1.085714285716000e+00 3.000000000000000e-01 0.000000000000000e+00
1.128571428574000e+00 3.000000000000000e-01 0.000000000000000e+00
1.171428571432000e+00 3.000000000000000e-01 0.000000000000000e+00
1.214285714290000e+00 3.000000000000000e-01 0.000000000000000e+00
1.214285714290000e+00 3.000000000000000e-01 0.000000000000000e+00
1.371428571432000e+00 3.000000000000000e-01 0.000000000000000e+00
1.528571428574000e+00 3.000000000000000e-01 0.000000000000000e+00
1.685714285716000e+00 3.000000000000000e-01 0.000000000000000e+00
1.842857142858000e+00 3.000000000000000e-01 0.000000000000000e+00
2.000000000000000e+00 2.999999999999999e-01 0.000000000000000e+00
2.000000000000000e+00 2.999999999999999e-01 0.000000000000000e+00
2.071428571428001e+00 3.000000000000000e-01 0.000000000000000e+00
2.142857142856001e+00 3.000000000000000e-01 0.000000000000000e+00
2.214285714284000e+00 3.000000000000000e-01 0.000000000000000e+00
2.285714285712000e+00 2.999999999999999e-01 0.000000000000000e+00
2.357142857140000e+00 3.000000000000000e-01 0.000000000000000e+00
2.357142857140000e+00 3.000000000000000e-01 0.000000000000000e+00
2.485714285712000e+00 3.000000000000000e-01 0.000000000000000e+00
2.614285714284000e+00 3.000000000000000e-01 0.000000000000000e+00
2.742857142856000e+00 3.000000000000000e-01 0.000000000000000e+00
2.871428571428000e+00 3.000000000000000e-01 0.000000000000000e+00
3.000000000000000e+00 3.000000000000000e-01 0.000000000000000e+00
3.000000000000000e+00 3.000000000000000e-01 0.000000000000000e+00
3.100000000000000e+00 3.000000000000000e-01 0.000000000000000e+00
3.200000000000000e+00 3.000000000000000e-01 0.000000000000000e+00
3.300000000000001e+00 3.000000000000000e-01 0.000000000000000e+00
3.399999999999999e+00 2.999999999999999e-01 0.000000000000000e+00
3.500000000000000e+00 3.000000000000000e-01 0.000000000000000e+00
        </DataArray>
      </Points>

      <Cells>
        <DataArray type="Int32" Name="connectivity" format="ascii">
0 1 2 3 4 5 6 7 8 9 10 11 12 13 14 15 16 17 18 19 20 21 22 23 24 25 26 27 28 29 30 31 32 33 34 35 36 37 38 39 40 41 42 43 44 45 46 47 48 49 50 51 52 53 54 55 56 57 58 59 60 61 62 63 64 65 66 67 68 69 70 71 72 73 74 75 76 77 78 79 80 81 82 83 84 85 86 87 88 89 
        </DataArray>
        <DataArray type="Int32" Name="offsets" format="ascii">
6 12 18 24 30 36 42 48 54 60 66 72 78 84 90 
        </DataArray>
        <DataArray type="UInt8" Name="types" format="ascii">
4 4 4 4 4 4 4 4 4 4 4 4 4 4 4 
        </DataArray>
      </Cells>

  <PointData>
        <DataArray type="Float64" Name="displacement" NumberOfComponents="3" format="ascii">
-9.209783004111571e-04 -9.607904145464419e-05 1.570531545316004e-02
-1.146340868041662e-03 -1.360011982219911e-04 2.168158094858486e-02
-1.430243367717132e-03 -1.853000239467328e-04 2.859126618145573e-02
-1.776743185311069e-03 -2.444459790655884e-04 3.640391084170648e-02
-2.189897706707633e-03 -3.139095240149992e-04 4.508905461927097e-02
-2.673764317781213e-03 -3.941611192315730e-04 5.461623720408307e-02
-2.673764317781213e-03 -3.941611192315730e-04 5.461623720408307e-02
-3.406311681297680e-03 -5.139506964511598e-04 6.805373279481150e-02
-4.271080989260767e-03 -6.533511810388193e-04 8.276807807028461e-02
-5.276695665298536e-03 -8.133624728728917e-04 9.869453377091485e-02
-6.431779133041271e-03 -9.949844718316059e-04 1.157683606371147e-01
-7.744954816118366e-03 -1.199217077793191e-03 1.339248194092965e-01
-7.744954816118366e-03 -1.199217077793191e-03 1.339248194092965e-01
-8.545621208767784e-03 -1.322040928912971e-03 1.444780484907399e-01
-9.397493810348934e-03 -1.450550655052674e-03 1.553807160691272e-01
-1.030054319843332e-02 -1.584588864415426e-03 1.666242842651184e-01
-1.125473995058712e-02 -1.723998165204466e-03 1.782002151993737e-01
-1.226005464438007e-02 -1.868621165623252e-03 1.900999709925530e-01
-1.226005464438051e-02 -1.868621165623197e-03 1.900999709925530e-01
-1.465153713155987e-02 -2.204368362467568e-03 2.173772225716440e-01
-1.728997476165972e-02 -2.562912181372001e-03 2.460895517927174e-01
-2.017505424463062e-02 -2.942576714485001e-03 2.761460473165606e-01
-2.330646229042488e-02 -3.341686053955073e-03 3.074557978039609e-01
-2.668388560899526e-02 -3.758564291930777e-03 3.399278919157063e-01
-2.668388560899526e-02 -3.758564291930777e-03 3.399278919157063e-01
-2.764725854602146e-02 -3.875325460951928e-03 3.489743026208708e-01
-2.862803213987908e-02 -3.993669308266334e-03 3.581003656183677e-01
-2.962609208521716e-02 -4.113580568032293e-03 3.673051144407646e-01
-3.064132407668074e-02 -4.235043974407826e-03 3.765875826206291e-01
-3.167361380891887e-02 -4.358044261551508e-03 3.859468036905287e-01
-3.167361380891887e-02 -4.358044261551508e-03 3.859468036905286e-01
-3.634119250021550e-02 -4.908432605773227e-03 4.273667735780315e-01
-4.131763018777379e-02 -5.486151309744558e-03 4.701312022547571e-01
-4.659362580272819e-02 -6.089958186268063e-03 5.141614479077826e-01
-5.215987827621338e-02 -6.718611048146195e-03 5.593788687241856e-01
-5.800708653936493e-02 -7.370867708181572e-03 6.057048228910440e-01
-5.800708653936493e-02 -7.370867708181572e-03 6.057048228910440e-01
-5.846811172321642e-02 -7.421976649647666e-03 6.093115109507827e-01
-5.893047930964768e-02 -7.473204257547883e-03 6.129232546911114e-01
-5.939418561293275e-02 -7.524550437149391e-03 6.165400365857253e-01
-5.985922694734547e-02 -7.576015093719413e-03 6.201618391083205e-01
-6.032559962716122e-02 -7.627598132525282e-03 6.237886447325927e-01
-6.032559962716122e-02 -7.627598132525282e-03 6.237886447325927e-01
-6.699254440536795e-02 -8.362137760198229e-03 6.750794344171404e-01
-7.390959684912246e-02 -9.119601791739873e-03 7.272993046961376e-01
-8.106664332729391e-02 -9.899730280429120e-03 7.804001633909692e-01
-8.845357020875139e-02 -1.070226327954527e-02 8.343339183230194e-01
-9.606026386236380e-02 -1.152694084236749e-02 8.890524773136731e-01
-9.606026386236380e-02 -1.152694084236749e-02 8.890524773136732e-01
-9.661174135104014e-02 -1.158668688295250e-02 8.929897059235040e-01
-9.716428481287367e-02 -1.164654448501373e-02 8.969306757411125e-01
-9.771789056213867e-02 -1.170651355381863e-02 9.008753692401940e-01
-9.827255491310954e-02 -1.176659399463426e-02 9.048237688944447e-01
-9.882827418006072e-02 -1.182678571272794e-02 9.087758571775604e-01
-9.882827418006072e-02 -1.182678571272794e-02 9.087758571775604e-01
-1.061210745399822e-01 -1.261700794077142e-02 9.603851110564211e-01
-1.135327408551420e-01 -1.342110901378551e-02 1.012395437518089e+00
-1.210567453369008e-01 -1.423888619614394e-02 1.064783827262547e+00
-1.286865601966192e-01 -1.507013675222035e-02 1.117527270989779e+00
-1.364156576456580e-01 -1.591465794638841e-02 1.170602759399769e+00
-1.364156576456578e-01 -1.591465794638841e-02 1.170602759399769e+00
-1.382127054962019e-01 -1.611141063181004e-02 1.182895673558996e+00
-1.400146127283515e-01 -1.630885674951499e-02 1.195204762451352e+00
-1.418212991189410e-01 -1.650699380798681e-02 1.207529743304372e+00
-1.436326844448068e-01 -1.670581931570886e-02 1.219870333345595e+00
-1.454486884827824e-01 -1.690533078116457e-02 1.232226249802557e+00
-1.454486884827824e-01 -1.690533078116457e-02 1.232226249802557e+00
-1.521342622520470e-01 -1.764132096279097e-02 1.277618967918728e+00
-1.588547650775103e-01 -1.838338902446457e-02 1.323124516867708e+00
-1.656070224179071e-01 -1.913107099330807e-02 1.368732328027531e+00
-1.723878597319710e-01 -1.988390289644448e-02 1.414431832776229e+00
-1.791941024784360e-01 -2.064142076099640e-02 1.460212462491835e+00
-1.791941024784360e-01 -2.064142076099640e-02 1.460212462491835e+00
-1.822953890426751e-01 -2.098717064893024e-02 1.481045799275759e+00
-1.854009706312598e-01 -2.133374927483428e-02 1.501892721271639e+00
-1.885105491092092e-01 -2.168111306499737e-02 1.522752235934211e+00
-1.916238263415453e-01 -2.202921844570827e-02 1.543623350718211e+00
-1.947405041932870e-01 -2.237802184325571e-02 1.564505073078377e+00
-1.947405041932870e-01 -2.237802184325571e-02 1.564505073078377e+00
-2.003538233559761e-01 -2.300761088875541e-02 1.602100549900810e+00
-2.059678744006863e-01 -2.363925706935421e-02 1.639694742295450e+00
-2.115825030914231e-01 -2.427262351076026e-02 1.677287447773774e+00
-2.171975551921954e-01 -2.490737333868170e-02 1.714878463847258e+00
-2.228128764670112e-01 -2.554316967882669e-02 1.752467588027380e+00
-2.228128764670108e-01 -2.554316967882675e-02 1.752467588027380e+00
-2.271804359316572e-01 -2.603818580916745e-02 1.781702135902739e+00
-2.315479923575317e-01 -2.653347272475598e-02 1.810935321533961e+00
-2.359154731754356e-01 -2.702887192369652e-02 1.840167049648672e+00
-2.402828058161712e-01 -2.752422490409318e-02 1.869397224974490e+00
-2.446499177105403e-01 -2.801937316405001e-02 1.898625752239041e+00
        </DataArray>
        <DataArray type="Float64" Name="lambda" NumberOfComponents="3" format="ascii">
-6.895754824700139e-03 4.497971049071325e-05 -5.681968957622881e-03
-2.030163081408910e-03 1.372080752790661e-05 -1.100436520720248e-03
7.723866968464763e-04 -4.943339907529521e-06 1.466838769928379e-03
1.938233071621157e-03 -1.348111869348688e-05 2.441526601081312e-03
1.893714604470277e-03 -1.436091570785724e-05 2.245296659496872e-03
1.065169856948976e-03 -1.005111782853236e-05 1.299818631933378e-03
1.065169856948976e-03 -1.005111782853236e-05 1.299818631933378e-03
-4.660213762506534e-04 -8.568696226337680e-07 -3.381264945995925e-04
-1.682367493392630e-03 7.589480364510355e-06 -1.621377016785325e-03
-1.677743679964295e-03 1.004171045940998e-05 -1.653731180539526e-03
4.539748785470090e-04 1.253598988575085e-06 4.610127682220938e-04
5.618912996653942e-03 -2.402107572148438e-05 5.619056583583830e-03
-8.438844383599677e-04 -3.590729495109139e-06 1.058867345433583e-03
-1.861091109397743e-04 -2.775968720368251e-06 8.826244808185638e-04
2.548993366731926e-04 -1.978607626737240e-06 6.853912410852145e-04
5.102588257641271e-04 -1.218304937574245e-06 4.780679785982924e-04
6.110872776182239e-04 -5.147193762374038e-07 2.715550457225581e-04
5.885026135206784e-04 1.124903339151454e-07 7.675279482277121e-05
5.885026135206784e-04 1.124903339151449e-07 7.675279482277140e-05
2.577513004486079e-04 1.126630511374947e-06 -2.568736201484999e-04
-1.883651289640576e-04 1.466637261727953e-06 -3.649956769293423e-04
-4.185030488700325e-04 9.231844986551030e-07 -1.315464235389071e-04
-1.013188334220314e-04 -7.130538641626639e-07 5.595410920036541e-04
1.094531143227232e-03 -3.651403913044410e-06 1.824333821679191e-03
2.978451785719287e-04 3.712787330131246e-06 1.595084155733132e-03
2.029328482840601e-04 2.574410124508187e-06 1.283257048214282e-03
1.252090213663290e-04 1.606489276557794e-06 1.001197842976278e-03
6.329563247405807e-05 7.977349224480466e-07 7.481476336457912e-04
1.581461626256997e-05 1.368571983469274e-07 5.233475138494921e-04
-1.861209261281235e-05 -3.874337595775821e-07 3.260385772140524e-04
-1.861209261281228e-05 -3.874337595775807e-07 3.260385772140529e-04
-5.056271322783486e-05 -1.356442204294739e-06 -2.298044883860171e-04
2.460685605858540e-05 -8.913136620255220e-07 -3.454272936676463e-04
9.476292776273491e-05 8.929146584710409e-08 -8.258233130105844e-05
4.777181440090023e-05 6.667127779401731e-07 4.969779060435233e-04
-2.285001715106322e-04 -7.771012712928106e-08 1.331500925695875e-03
5.648532935884218e-04 -5.199678972256647e-06 1.838050482103242e-03
4.908222355299376e-04 -4.466264860963110e-06 1.699411583981185e-03
4.213243812232803e-04 -3.779410513204930e-06 1.565982173355288e-03
3.562440722950698e-04 -3.137904140183815e-06 1.437688559378823e-03
2.954656503719251e-04 -2.540533953101463e-06 1.314457051205063e-03
2.388734570804662e-04 -1.986088163159581e-06 1.196213957987277e-03
2.388734570804662e-04 -1.986088163159581e-06 1.196213957987277e-03
-1.786319317636397e-04 1.947692923305258e-06 2.332734916263456e-05
-1.156721265492485e-04 1.030951237360952e-06 -3.884810177002918e-04
1.103862961863077e-04 -1.411164758663418e-06 -2.414188260134563e-04
1.821767599056970e-04 -2.053506602438774e-06 2.623062408111871e-04
-2.176673119284124e-04 2.429074168363965e-06 9.204864993616834e-04
-2.176673119284127e-04 2.429074168363967e-06 9.204864993616835e-04
-2.726600747241933e-04 3.033219929707839e-06 9.680670637785192e-04
-3.317940117713656e-04 3.681690087385214e-06 1.015330302186966e-03
-3.951847814433027e-04 4.375696430194311e-06 1.062202523740300e-03
-4.629480421133793e-04 5.116450746933368e-06 1.108610037591797e-03
-5.351994521549686e-04 5.905164826400602e-06 1.154479152894731e-03
3.241750817291402e-04 -6.172671509220494e-06 1.775434875684145e-03
-5.639306212491859e-05 9.258732590071765e-07 4.361038794029012e-04
-1.239324572783646e-04 2.212389866938834e-06 -2.464518610678245e-04
-2.714245230984104e-05 4.156773589936610e-07 -3.947935632222747e-04
8.527760420200842e-05 -1.735465220409159e-06 -1.314824445546912e-04
6.462836367854052e-05 -1.512238826850444e-06 4.209202774406844e-04
6.462836367854045e-05 -1.512238826850443e-06 4.209202774406848e-04
2.526330473782495e-05 -8.353793459948315e-07 5.765099714954332e-04
-3.093462354746002e-05 1.467820157261480e-07 7.394619333111117e-04
-1.057928596897697e-04 1.467780795046105e-06 9.082699485624835e-04
-2.011388422015595e-04 3.161152528698650e-06 1.081427802924313e-03
-3.188000095952854e-04 5.260432753417404e-06 1.257429282071365e-03
4.108997629237060e-05 -3.080868861695200e-06 1.619039701468982e-03
-5.987710545912178e-05 1.074073054824559e-07 5.867860000773082e-04
-5.637268131354361e-05 1.123489289941008e-06 -5.202907694373579e-05
7.277303330204631e-07 7.704401818228013e-07 -3.420468846202559e-04
6.054861108448579e-05 -1.486769287298183e-07 -3.279087779783593e-04
7.221444254476770e-05 -8.307989515745042e-07 -5.425611204415342e-05
7.221444254476761e-05 -8.307989515745050e-07 -5.425611204415221e-05
4.783759785872839e-05 -8.453017861189809e-07 1.438471044612354e-04
-1.778049166395773e-06 -5.694974191800624e-07 3.821531472586468e-04
-8.141043977738319e-05 7.203329745188562e-08 6.564695525026872e-04
-1.958375152210124e-04 1.154709511986504e-06 9.626038563479615e-04
-3.498372167440618e-04 2.753950372633425e-06 1.296363594949075e-03
-2.097240307325780e-04 1.712117377838389e-06 2.720355038591038e-03
-6.829922184997905e-05 2.789183485642909e-07 5.827657800299082e-04
6.700013310212945e-06 -3.677233871633858e-07 -4.346292918192946e-04
3.083310268841052e-05 -4.392119095448506e-07 -6.301500635871417e-04
1.965947422502626e-05 -1.469512987803129e-07 -3.021164219042036e-04
-1.126144413952731e-05 2.976543649300182e-07 2.511517465989499e-04
-1.126144413952741e-05 2.976543649300194e-07 2.511517465989515e-04
-3.900318412665032e-05 6.134542011176944e-07 6.462207534073920e-04
-6.195749385477035e-05 7.940597567475208e-07 8.567158716163788e-04
-7.280354508864710e-05 7.400038171312904e-07 7.422753438693679e-04
-6.422050959304007e-05 3.518191675807934e-07 1.625374128098151e-04
-2.888755913270862e-05 -4.699614065921808e-07 -1.022859678918825e-03
        </DataArray>
        <DataArray type="Int32" Name="uid_0_pair_beam_id" format="ascii">
10
10
10
10
10
10
10
10
10
10
10
10
11
11
11
11
11
11
11
11
11
11
11
11
12
12
12
12
12
12
12
12
12
12
12
12
13
13
13
13
13
13
13
13
13
13
13
13
13
13
13
13
13
13
14
14
14
14
14
14
14
14
14
14
14
14
15
15
15
15
15
15
15
15
15
15
15
15
16
16
16
16
16
16
16
16
16
16
16
16
        </DataArray>
        <DataArray type="Int32" Name="uid_1_pair_solid_id" format="ascii">
0
0
0
0
0
0
1
1
1
1
1
1
1
1
1
1
1
1
2
2
2
2
2
2
2
2
2
2
2
2
3
3
3
3
3
3
3
3
3
3
3
3
4
4
4
4
4
4
5
5
5
5
5
5
5
5
5
5
5
5
6
6
6
6
6
6
6
6
6
6
6
6
7
7
7
7
7
7
7
7
7
7
7
7
8
8
8
8
8
8
        </DataArray>
  </PointData>
  <CellData>
        <DataArray type="Int32" Name="uid_0_pair_beam_id" format="ascii">
10
10
11
11
12
12
13
13
13
14
14
15
15
16
16
        </DataArray>
        <DataArray type="Int32" Name="uid_1_pair_solid_id" format="ascii">
0
1
1
2
2
3
3
4
5
5
6
6
7
7
8
        </DataArray>
      </CellData>

    </Piece>
  </UnstructuredGrid>
</VTKFile>
