<?xml version="1.0" ?> 
<!-- 
# vtk DataFile Version 3.0
-->
<VTKFile type="UnstructuredGrid" version="0.1" compressor="vtkZLibDataCompressor" byte_order="LittleEndian">
  <UnstructuredGrid>
    <FieldData>
      <DataArray type="Float64" Name="TIME" NumberOfTuples="1" format="ascii">
1
      </DataArray>
    </FieldData>

    <Piece NumberOfPoints="18" NumberOfCells="3" >
      <Points>
        <DataArray type="Float64" NumberOfComponents="3" format="ascii">
-2.500000000000000e+00 0.000000000000000e+00 0.000000000000000e+00
-2.169743516220088e+00 0.000000000000000e+00 2.845568933482647e-02
-1.848078765302483e+00 0.000000000000000e+00 1.078878001611712e-01
-1.538662797880177e+00 0.000000000000000e+00 2.315789935730170e-01
-1.245152664586165e+00 0.000000000000000e+00 3.928119306643466e-01
-9.712054160534396e-01 0.000000000000000e+00 5.848692725291426e-01
-9.712054160534396e-01 0.000000000000000e+00 5.848692725291426e-01
-7.182209850480349e-01 0.000000000000000e+00 8.013156675245591e-01
-4.840191733735520e-01 0.000000000000000e+00 1.037874764790473e+00
-2.668868352198089e-01 0.000000000000000e+00 1.291067726594583e+00
-6.511082477662364e-02 0.000000000000000e+00 1.557415715204586e+00
1.230220037661852e-01 0.000000000000000e+00 1.833439892888179e+00
1.230220037661852e-01 0.000000000000000e+00 1.833439892888179e+00
2.996106711961282e-01 0.000000000000000e+00 2.116349411201142e+00
4.671197011673440e-01 0.000000000000000e+00 2.404719310607212e+00
6.278104937902845e-01 0.000000000000000e+00 2.697119586736535e+00
7.839444491754020e-01 0.000000000000000e+00 2.992120235219255e+00
9.377829674331479e-01 0.000000000000000e+00 3.288291251685516e+00
        </DataArray>
      </Points>

      <Cells>
        <DataArray type="Int32" Name="connectivity" format="ascii">
0 1 2 3 4 5 6 7 8 9 10 11 12 13 14 15 16 17 
        </DataArray>
        <DataArray type="Int32" Name="offsets" format="ascii">
6 12 18 
        </DataArray>
        <DataArray type="UInt8" Name="types" format="ascii">
4 4 4 
        </DataArray>
      </Cells>

  <PointData>
        <DataArray type="Float64" Name="displacement" NumberOfComponents="3" format="ascii">
0.000000000000000e+00 0.000000000000000e+00 0.000000000000000e+00
-3.076849553488525e-03 0.000000000000000e+00 2.845568933482647e-02
-1.474543196928302e-02 0.000000000000000e+00 1.078878001611712e-01
-3.866279788037730e-02 0.000000000000000e+00 2.315789935730170e-01
-7.848599791976496e-02 0.000000000000000e+00 3.928119306643466e-01
-1.378720827204396e-01 0.000000000000000e+00 5.848692725291426e-01
-1.378720827204396e-01 0.000000000000000e+00 5.848692725291426e-01
-2.182209850482350e-01 0.000000000000000e+00 8.013156675245591e-01
-3.173525067069521e-01 0.000000000000000e+00 1.037874764790473e+00
-4.335535018864088e-01 0.000000000000000e+00 1.291067726594583e+00
-5.651108247764236e-01 0.000000000000000e+00 1.557415715204586e+00
-7.103113295668148e-01 0.000000000000000e+00 1.833439892888179e+00
-7.103113295668148e-01 0.000000000000000e+00 1.833439892888179e+00
-8.670559954702719e-01 0.000000000000000e+00 2.116349411201142e+00
-1.032880298832456e+00 0.000000000000000e+00 2.404719310607212e+00
-1.205522839542915e+00 0.000000000000000e+00 2.697119586736535e+00
-1.382722217491198e+00 0.000000000000000e+00 2.992120235219255e+00
-1.562217032566852e+00 0.000000000000000e+00 3.288291251685516e+00
        </DataArray>
  </PointData>
  <CellData>
        <DataArray type="Float64" Name="axial_strain_GPs" NumberOfComponents="3" format="ascii">
0.000000000000000e+00 4.041092150917081e-04 6.707351182762000e-04
6.707351182762000e-04 8.286511576010014e-04 9.152164023931153e-04
9.152164023931153e-04 9.571084143680242e-04 9.696521152846582e-04
        </DataArray>
        <DataArray type="Float64" Name="cross_section_radius" format="ascii">
1.706886780539025e-01
1.706886780539025e-01
1.706886780539025e-01
        </DataArray>
        <DataArray type="Float64" Name="curvature_2_GPs" NumberOfComponents="3" format="ascii">
-4.865301705316765e-01 -3.966086923152739e-01 -3.066872140988713e-01
-2.622651799848226e-01 -1.992146695941159e-01 -1.361641592034092e-01
-1.059788042592291e-01 -5.932971687094132e-02 -1.268062948265358e-02
        </DataArray>
        <DataArray type="Float64" Name="curvature_3_GPs" NumberOfComponents="3" format="ascii">
0.000000000000000e+00 0.000000000000000e+00 0.000000000000000e+00
0.000000000000000e+00 0.000000000000000e+00 0.000000000000000e+00
0.000000000000000e+00 0.000000000000000e+00 0.000000000000000e+00
        </DataArray>
        <DataArray type="Float64" Name="element_owner" format="ascii">
0.000000000000000e+00
0.000000000000000e+00
0.000000000000000e+00
        </DataArray>
        <DataArray type="Float64" Name="shear_strain_2_GPs" NumberOfComponents="3" format="ascii">
0.000000000000000e+00 0.000000000000000e+00 0.000000000000000e+00
0.000000000000000e+00 0.000000000000000e+00 0.000000000000000e+00
0.000000000000000e+00 0.000000000000000e+00 0.000000000000000e+00
        </DataArray>
        <DataArray type="Float64" Name="shear_strain_3_GPs" NumberOfComponents="3" format="ascii">
2.185096861184158e-03 2.030130848459766e-03 1.724849528858374e-03
1.724849528858208e-03 1.424077711637106e-03 1.193383442116946e-03
1.193383442116835e-03 1.053765735511358e-03 1.006850234172130e-03
        </DataArray>
        <DataArray type="Float64" Name="twist_GPs" NumberOfComponents="3" format="ascii">
0.000000000000000e+00 0.000000000000000e+00 0.000000000000000e+00
0.000000000000000e+00 0.000000000000000e+00 0.000000000000000e+00
0.000000000000000e+00 0.000000000000000e+00 0.000000000000000e+00
        </DataArray>
      </CellData>

    </Piece>
  </UnstructuredGrid>
</VTKFile>
