<?xml version="1.0" ?> 
<!-- 
# vtk DataFile Version 3.0
-->
<VTKFile type="UnstructuredGrid" version="0.1" compressor="vtkZLibDataCompressor" byte_order="LittleEndian">
  <UnstructuredGrid>
    <FieldData>
      <DataArray type="Float64" Name="TIME" NumberOfTuples="1" format="ascii">
1
      </DataArray>
    </FieldData>

    <Piece NumberOfPoints="160" NumberOfCells="20" >
      <Points>
        <DataArray type="Float64" NumberOfComponents="3" format="ascii">
-2.500000000000000e+00 1.000000000000000e+00 1.000000000000000e-01
-2.500000000000000e+00 1.000000000000000e+00 5.000000000000000e-02
-2.500000000000000e+00 2.000000000000000e+00 5.000000000000000e-02
-2.500000000000000e+00 2.000000000000000e+00 1.000000000000000e-01
-2.000000000000000e+00 1.000000000000000e+00 1.000000000000000e-01
-2.000000000000000e+00 1.000000000000000e+00 5.000000000000000e-02
-2.000000000000000e+00 2.000000000000000e+00 5.000000000000001e-02
-2.000000000000000e+00 2.000000000000000e+00 1.000000000000000e-01
-2.500000000000000e+00 1.000000000000000e+00 5.000000000000000e-02
-2.500000000000000e+00 1.000000000000000e+00 0.000000000000000e+00
-2.500000000000000e+00 2.000000000000000e+00 0.000000000000000e+00
-2.500000000000000e+00 2.000000000000000e+00 5.000000000000000e-02
-2.000000000000000e+00 1.000000000000000e+00 5.000000000000000e-02
-2.000000000000000e+00 1.000000000000000e+00 3.469446951953614e-18
-2.000000000000000e+00 2.000000000000000e+00 0.000000000000000e+00
-2.000000000000000e+00 2.000000000000000e+00 5.000000000000001e-02
-2.500000000000000e+00 1.000000000000000e+00 0.000000000000000e+00
-2.500000000000000e+00 1.000000000000000e+00 -5.000000000000002e-02
-2.500000000000000e+00 2.000000000000000e+00 -5.000000000000002e-02
-2.500000000000000e+00 2.000000000000000e+00 0.000000000000000e+00
-2.000000000000000e+00 1.000000000000000e+00 3.469446951953614e-18
-2.000000000000000e+00 1.000000000000000e+00 -5.000000000000001e-02
-2.000000000000000e+00 2.000000000000000e+00 -5.000000000000000e-02
-2.000000000000000e+00 2.000000000000000e+00 0.000000000000000e+00
-2.500000000000000e+00 1.000000000000000e+00 -5.000000000000002e-02
-2.500000000000000e+00 1.000000000000000e+00 -1.000000000000000e-01
-2.500000000000000e+00 2.000000000000000e+00 -1.000000000000000e-01
-2.500000000000000e+00 2.000000000000000e+00 -5.000000000000002e-02
-2.000000000000000e+00 1.000000000000000e+00 -5.000000000000001e-02
-2.000000000000000e+00 1.000000000000000e+00 -1.000000000000000e-01
-2.000000000000000e+00 2.000000000000000e+00 -1.000000000000000e-01
-2.000000000000000e+00 2.000000000000000e+00 -5.000000000000000e-02
-2.000000000000000e+00 1.000000000000000e+00 1.000000000000000e-01
-2.000000000000000e+00 1.000000000000000e+00 5.000000000000000e-02
-2.000000000000000e+00 2.000000000000000e+00 5.000000000000001e-02
-2.000000000000000e+00 2.000000000000000e+00 1.000000000000000e-01
-1.500000000000000e+00 1.000000000000000e+00 1.000000000000000e-01
-1.500000000000000e+00 1.000000000000000e+00 5.000000000000003e-02
-1.500000000000000e+00 2.000000000000000e+00 5.000000000000000e-02
-1.500000000000000e+00 2.000000000000000e+00 1.000000000000000e-01
-2.000000000000000e+00 1.000000000000000e+00 5.000000000000000e-02
-2.000000000000000e+00 1.000000000000000e+00 3.469446951953614e-18
-2.000000000000000e+00 2.000000000000000e+00 0.000000000000000e+00
-2.000000000000000e+00 2.000000000000000e+00 5.000000000000001e-02
-1.500000000000000e+00 1.000000000000000e+00 5.000000000000003e-02
-1.500000000000000e+00 1.000000000000000e+00 0.000000000000000e+00
-1.500000000000000e+00 2.000000000000000e+00 0.000000000000000e+00
-1.500000000000000e+00 2.000000000000000e+00 5.000000000000000e-02
-2.000000000000000e+00 1.000000000000000e+00 3.469446951953614e-18
-2.000000000000000e+00 1.000000000000000e+00 -5.000000000000001e-02
-2.000000000000000e+00 2.000000000000000e+00 -5.000000000000000e-02
-2.000000000000000e+00 2.000000000000000e+00 0.000000000000000e+00
-1.500000000000000e+00 1.000000000000000e+00 0.000000000000000e+00
-1.500000000000000e+00 1.000000000000000e+00 -5.000000000000002e-02
-1.500000000000000e+00 2.000000000000000e+00 -5.000000000000002e-02
-1.500000000000000e+00 2.000000000000000e+00 0.000000000000000e+00
-2.000000000000000e+00 1.000000000000000e+00 -5.000000000000001e-02
-2.000000000000000e+00 1.000000000000000e+00 -1.000000000000000e-01
-2.000000000000000e+00 2.000000000000000e+00 -1.000000000000000e-01
-2.000000000000000e+00 2.000000000000000e+00 -5.000000000000000e-02
-1.500000000000000e+00 1.000000000000000e+00 -5.000000000000002e-02
-1.500000000000000e+00 1.000000000000000e+00 -1.000000000000000e-01
-1.500000000000000e+00 2.000000000000000e+00 -1.000000000000000e-01
-1.500000000000000e+00 2.000000000000000e+00 -5.000000000000002e-02
-1.500000000000000e+00 1.000000000000000e+00 1.000000000000000e-01
-1.500000000000000e+00 1.000000000000000e+00 5.000000000000003e-02
-1.500000000000000e+00 2.000000000000000e+00 5.000000000000000e-02
-1.500000000000000e+00 2.000000000000000e+00 1.000000000000000e-01
-1.000000000000000e+00 1.000000000000000e+00 1.000000000000000e-01
-1.000000000000000e+00 1.000000000000000e+00 5.000000000000001e-02
-1.000000000000000e+00 2.000000000000000e+00 5.000000000000000e-02
-1.000000000000000e+00 2.000000000000000e+00 1.000000000000000e-01
-1.500000000000000e+00 1.000000000000000e+00 5.000000000000003e-02
-1.500000000000000e+00 1.000000000000000e+00 0.000000000000000e+00
-1.500000000000000e+00 2.000000000000000e+00 0.000000000000000e+00
-1.500000000000000e+00 2.000000000000000e+00 5.000000000000000e-02
-1.000000000000000e+00 1.000000000000000e+00 5.000000000000001e-02
-1.000000000000000e+00 1.000000000000000e+00 0.000000000000000e+00
-1.000000000000000e+00 2.000000000000000e+00 -6.938893903907228e-18
-1.000000000000000e+00 2.000000000000000e+00 5.000000000000000e-02
-1.500000000000000e+00 1.000000000000000e+00 0.000000000000000e+00
-1.500000000000000e+00 1.000000000000000e+00 -5.000000000000002e-02
-1.500000000000000e+00 2.000000000000000e+00 -5.000000000000002e-02
-1.500000000000000e+00 2.000000000000000e+00 0.000000000000000e+00
-1.000000000000000e+00 1.000000000000000e+00 0.000000000000000e+00
-1.000000000000000e+00 1.000000000000000e+00 -5.000000000000002e-02
-1.000000000000000e+00 2.000000000000000e+00 -5.000000000000002e-02
-1.000000000000000e+00 2.000000000000000e+00 -6.938893903907228e-18
-1.500000000000000e+00 1.000000000000000e+00 -5.000000000000002e-02
-1.500000000000000e+00 1.000000000000000e+00 -1.000000000000000e-01
-1.500000000000000e+00 2.000000000000000e+00 -1.000000000000000e-01
-1.500000000000000e+00 2.000000000000000e+00 -5.000000000000002e-02
-1.000000000000000e+00 1.000000000000000e+00 -5.000000000000002e-02
-1.000000000000000e+00 1.000000000000000e+00 -1.000000000000000e-01
-1.000000000000000e+00 2.000000000000000e+00 -1.000000000000000e-01
-1.000000000000000e+00 2.000000000000000e+00 -5.000000000000002e-02
-1.000000000000000e+00 1.000000000000000e+00 1.000000000000000e-01
-1.000000000000000e+00 1.000000000000000e+00 5.000000000000001e-02
-1.000000000000000e+00 2.000000000000000e+00 5.000000000000000e-02
-1.000000000000000e+00 2.000000000000000e+00 1.000000000000000e-01
-5.000000000000000e-01 1.000000000000000e+00 1.000000000000000e-01
-5.000000000000001e-01 1.000000000000000e+00 5.000000000000000e-02
-5.000000000000000e-01 2.000000000000000e+00 5.000000000000001e-02
-5.000000000000000e-01 2.000000000000000e+00 1.000000000000000e-01
-1.000000000000000e+00 1.000000000000000e+00 5.000000000000001e-02
-1.000000000000000e+00 1.000000000000000e+00 0.000000000000000e+00
-1.000000000000000e+00 2.000000000000000e+00 -6.938893903907228e-18
-1.000000000000000e+00 2.000000000000000e+00 5.000000000000000e-02
-5.000000000000001e-01 1.000000000000000e+00 5.000000000000000e-02
-5.000000000000000e-01 1.000000000000000e+00 0.000000000000000e+00
-5.000000000000000e-01 2.000000000000000e+00 0.000000000000000e+00
-5.000000000000000e-01 2.000000000000000e+00 5.000000000000001e-02
-1.000000000000000e+00 1.000000000000000e+00 0.000000000000000e+00
-1.000000000000000e+00 1.000000000000000e+00 -5.000000000000002e-02
-1.000000000000000e+00 2.000000000000000e+00 -5.000000000000002e-02
-1.000000000000000e+00 2.000000000000000e+00 -6.938893903907228e-18
-5.000000000000000e-01 1.000000000000000e+00 0.000000000000000e+00
-5.000000000000000e-01 1.000000000000000e+00 -5.000000000000001e-02
-5.000000000000002e-01 2.000000000000000e+00 -5.000000000000002e-02
-5.000000000000000e-01 2.000000000000000e+00 0.000000000000000e+00
-1.000000000000000e+00 1.000000000000000e+00 -5.000000000000002e-02
-1.000000000000000e+00 1.000000000000000e+00 -1.000000000000000e-01
-1.000000000000000e+00 2.000000000000000e+00 -1.000000000000000e-01
-1.000000000000000e+00 2.000000000000000e+00 -5.000000000000002e-02
-5.000000000000000e-01 1.000000000000000e+00 -5.000000000000001e-02
-5.000000000000000e-01 1.000000000000000e+00 -1.000000000000000e-01
-5.000000000000000e-01 2.000000000000000e+00 -1.000000000000000e-01
-5.000000000000002e-01 2.000000000000000e+00 -5.000000000000002e-02
-5.000000000000000e-01 1.000000000000000e+00 1.000000000000000e-01
-5.000000000000001e-01 1.000000000000000e+00 5.000000000000000e-02
-5.000000000000000e-01 2.000000000000000e+00 5.000000000000001e-02
-5.000000000000000e-01 2.000000000000000e+00 1.000000000000000e-01
0.000000000000000e+00 1.000000000000000e+00 1.000000000000000e-01
0.000000000000000e+00 1.000000000000000e+00 4.999999999999999e-02
0.000000000000000e+00 2.000000000000000e+00 4.999999999999999e-02
0.000000000000000e+00 2.000000000000000e+00 1.000000000000000e-01
-5.000000000000001e-01 1.000000000000000e+00 5.000000000000000e-02
-5.000000000000000e-01 1.000000000000000e+00 0.000000000000000e+00
-5.000000000000000e-01 2.000000000000000e+00 0.000000000000000e+00
-5.000000000000000e-01 2.000000000000000e+00 5.000000000000001e-02
0.000000000000000e+00 1.000000000000000e+00 4.999999999999999e-02
0.000000000000000e+00 1.000000000000000e+00 0.000000000000000e+00
0.000000000000000e+00 2.000000000000000e+00 0.000000000000000e+00
0.000000000000000e+00 2.000000000000000e+00 4.999999999999999e-02
-5.000000000000000e-01 1.000000000000000e+00 0.000000000000000e+00
-5.000000000000000e-01 1.000000000000000e+00 -5.000000000000001e-02
-5.000000000000002e-01 2.000000000000000e+00 -5.000000000000002e-02
-5.000000000000000e-01 2.000000000000000e+00 0.000000000000000e+00
0.000000000000000e+00 1.000000000000000e+00 0.000000000000000e+00
0.000000000000000e+00 1.000000000000000e+00 -5.000000000000002e-02
0.000000000000000e+00 2.000000000000000e+00 -5.000000000000002e-02
0.000000000000000e+00 2.000000000000000e+00 0.000000000000000e+00
-5.000000000000000e-01 1.000000000000000e+00 -5.000000000000001e-02
-5.000000000000000e-01 1.000000000000000e+00 -1.000000000000000e-01
-5.000000000000000e-01 2.000000000000000e+00 -1.000000000000000e-01
-5.000000000000002e-01 2.000000000000000e+00 -5.000000000000002e-02
0.000000000000000e+00 1.000000000000000e+00 -5.000000000000002e-02
0.000000000000000e+00 1.000000000000000e+00 -1.000000000000000e-01
0.000000000000000e+00 2.000000000000000e+00 -1.000000000000000e-01
0.000000000000000e+00 2.000000000000000e+00 -5.000000000000002e-02
        </DataArray>
      </Points>

      <Cells>
        <DataArray type="Int32" Name="connectivity" format="ascii">
0 1 2 3 4 5 6 7 8 9 10 11 12 13 14 15 16 17 18 19 20 21 22 23 24 25 26 27 28 29 30 31 32 33 34 35 36 37 38 39 40 41 42 43 44 45 46 47 48 49 50 51 52 53 54 55 56 57 58 59 60 61 62 63 64 65 66 67 68 69 70 71 72 73 74 75 76 77 78 79 80 81 82 83 84 85 86 87 88 89 90 91 92 93 94 95 96 97 98 99 100 101 102 103 104 105 106 107 108 109 110 111 112 113 114 115 116 117 118 119 120 121 122 123 124 125 126 127 128 129 130 131 132 133 134 135 136 137 138 139 140 141 142 143 144 145 146 147 148 149 150 151 152 153 154 155 156 157 158 159 
        </DataArray>
        <DataArray type="Int32" Name="offsets" format="ascii">
8 16 24 32 40 48 56 64 72 80 88 96 104 112 120 128 136 144 152 160 
        </DataArray>
        <DataArray type="UInt8" Name="types" format="ascii">
12 12 12 12 12 12 12 12 12 12 12 12 12 12 12 12 12 12 12 12 
        </DataArray>
      </Cells>

  <PointData>
        <DataArray type="Float64" Name="displacement" NumberOfComponents="3" format="ascii">
0.000000000000000e+00 0.000000000000000e+00 0.000000000000000e+00
0.000000000000000e+00 0.000000000000000e+00 0.000000000000000e+00
0.000000000000000e+00 0.000000000000000e+00 0.000000000000000e+00
0.000000000000000e+00 0.000000000000000e+00 0.000000000000000e+00
-2.751006244315979e-02 -4.526693026961986e-17 5.695037813768466e-02
-1.573252537324583e-02 1.121787463304859e-16 5.810567949692852e-02
-1.573252537324573e-02 1.591195393860409e-16 5.810567949692817e-02
-2.751006244315962e-02 1.416389093825404e-16 5.695037813768431e-02
0.000000000000000e+00 0.000000000000000e+00 0.000000000000000e+00
0.000000000000000e+00 0.000000000000000e+00 0.000000000000000e+00
0.000000000000000e+00 0.000000000000000e+00 0.000000000000000e+00
0.000000000000000e+00 0.000000000000000e+00 0.000000000000000e+00
-1.573252537324583e-02 1.121787463304859e-16 5.810567949692852e-02
-4.035113008439385e-03 -3.621509561586235e-17 5.927855311634407e-02
-4.035113008439243e-03 -8.261573653025584e-17 5.927855311634371e-02
-1.573252537324573e-02 1.591195393860409e-16 5.810567949692817e-02
0.000000000000000e+00 0.000000000000000e+00 0.000000000000000e+00
0.000000000000000e+00 0.000000000000000e+00 0.000000000000000e+00
0.000000000000000e+00 0.000000000000000e+00 0.000000000000000e+00
0.000000000000000e+00 0.000000000000000e+00 0.000000000000000e+00
-4.035113008439385e-03 -3.621509561586235e-17 5.927855311634407e-02
7.642278078221121e-03 -5.432326110627851e-17 6.044813907896700e-02
7.642278078221510e-03 1.740217948379704e-16 6.044813907896662e-02
-4.035113008439243e-03 -8.261573653025584e-17 5.927855311634371e-02
0.000000000000000e+00 0.000000000000000e+00 0.000000000000000e+00
0.000000000000000e+00 0.000000000000000e+00 0.000000000000000e+00
0.000000000000000e+00 0.000000000000000e+00 0.000000000000000e+00
0.000000000000000e+00 0.000000000000000e+00 0.000000000000000e+00
7.642278078221121e-03 -5.432326110627851e-17 6.044813907896700e-02
1.933283689454300e-02 -5.621876430928479e-18 6.158359758776476e-02
1.933283689454324e-02 2.839475687954013e-17 6.158359758776438e-02
7.642278078221510e-03 1.740217948379704e-16 6.044813907896662e-02
-2.751006244315979e-02 -4.526693026961986e-17 5.695037813768466e-02
-1.573252537324583e-02 1.121787463304859e-16 5.810567949692852e-02
-1.573252537324573e-02 1.591195393860409e-16 5.810567949692817e-02
-2.751006244315962e-02 1.416389093825404e-16 5.695037813768431e-02
-7.527315415769945e-02 1.598783901928283e-16 2.157583711627859e-01
-5.399088786705787e-02 1.516954000121508e-16 2.203880804165811e-01
-5.399088786705741e-02 -2.511563881413318e-17 2.203880804165806e-01
-7.527315415769897e-02 2.398674175043506e-16 2.157583711627854e-01
-1.573252537324583e-02 1.121787463304859e-16 5.810567949692852e-02
-4.035113008439385e-03 -3.621509561586235e-17 5.927855311634407e-02
-4.035113008439243e-03 -8.261573653025584e-17 5.927855311634371e-02
-1.573252537324573e-02 1.591195393860409e-16 5.810567949692817e-02
-5.399088786705787e-02 1.516954000121508e-16 2.203880804165811e-01
-3.270713886097389e-02 8.204593097340319e-18 2.250316236445357e-01
-3.270713886097341e-02 7.181996798787044e-17 2.250316236445352e-01
-5.399088786705741e-02 -2.511563881413318e-17 2.203880804165806e-01
-4.035113008439385e-03 -3.621509561586235e-17 5.927855311634407e-02
7.642278078221121e-03 -5.432326110627851e-17 6.044813907896700e-02
7.642278078221510e-03 1.740217948379704e-16 6.044813907896662e-02
-4.035113008439243e-03 -8.261573653025584e-17 5.927855311634371e-02
-3.270713886097389e-02 8.204593097340319e-18 2.250316236445357e-01
-1.140344351723871e-02 -1.356434708184854e-16 2.296837176083727e-01
-1.140344351723869e-02 1.738700911864032e-16 2.296837176083722e-01
-3.270713886097341e-02 7.181996798787044e-17 2.250316236445352e-01
7.642278078221121e-03 -5.432326110627851e-17 6.044813907896700e-02
1.933283689454300e-02 -5.621876430928479e-18 6.158359758776476e-02
1.933283689454324e-02 2.839475687954013e-17 6.158359758776438e-02
7.642278078221510e-03 1.740217948379704e-16 6.044813907896662e-02
-1.140344351723871e-02 -1.356434708184854e-16 2.296837176083727e-01
9.983814292336140e-03 1.094262849341582e-16 2.343603712117961e-01
9.983814292336385e-03 -1.239764834813870e-16 2.343603712117956e-01
-1.140344351723869e-02 1.738700911864032e-16 2.296837176083722e-01
-7.527315415769945e-02 1.598783901928283e-16 2.157583711627859e-01
-5.399088786705787e-02 1.516954000121508e-16 2.203880804165811e-01
-5.399088786705741e-02 -2.511563881413318e-17 2.203880804165806e-01
-7.527315415769897e-02 2.398674175043506e-16 2.157583711627854e-01
-1.574565560063609e-01 -8.887147009568349e-17 4.576913666940566e-01
-1.287670683369519e-01 5.627680592242963e-17 4.666268775580406e-01
-1.287670683369513e-01 -1.046486168465399e-16 4.666268775580401e-01
-1.574565560063602e-01 1.433782154352223e-16 4.576913666940560e-01
-5.399088786705787e-02 1.516954000121508e-16 2.203880804165811e-01
-3.270713886097389e-02 8.204593097340319e-18 2.250316236445357e-01
-3.270713886097341e-02 7.181996798787044e-17 2.250316236445352e-01
-5.399088786705741e-02 -2.511563881413318e-17 2.203880804165806e-01
-1.287670683369519e-01 5.627680592242963e-17 4.666268775580406e-01
-1.001362110367043e-01 -8.277425015835252e-17 4.755392730860036e-01
-1.001362110367036e-01 5.959809785510896e-17 4.755392730860030e-01
-1.287670683369513e-01 -1.046486168465399e-16 4.666268775580401e-01
-3.270713886097389e-02 8.204593097340319e-18 2.250316236445357e-01
-1.140344351723871e-02 -1.356434708184854e-16 2.296837176083727e-01
-1.140344351723869e-02 1.738700911864032e-16 2.296837176083722e-01
-3.270713886097341e-02 7.181996798787044e-17 2.250316236445352e-01
-1.001362110367043e-01 -8.277425015835252e-17 4.755392730860036e-01
-7.151100485028211e-02 -6.262279070834982e-17 4.844497372097343e-01
-7.151100485028154e-02 -5.788330594822265e-17 4.844497372097337e-01
-1.001362110367036e-01 5.959809785510896e-17 4.755392730860030e-01
-1.140344351723871e-02 -1.356434708184854e-16 2.296837176083727e-01
9.983814292336140e-03 1.094262849341582e-16 2.343603712117961e-01
9.983814292336385e-03 -1.239764834813870e-16 2.343603712117956e-01
-1.140344351723869e-02 1.738700911864032e-16 2.296837176083722e-01
-7.151100485028211e-02 -6.262279070834982e-17 4.844497372097343e-01
-4.288698903982575e-02 -1.223302047966374e-16 4.933444293215393e-01
-4.288698903982505e-02 5.700260188746027e-17 4.933444293215387e-01
-7.151100485028154e-02 -5.788330594822265e-17 4.844497372097337e-01
-1.574565560063609e-01 -8.887147009568349e-17 4.576913666940566e-01
-1.287670683369519e-01 5.627680592242963e-17 4.666268775580406e-01
-1.287670683369513e-01 -1.046486168465399e-16 4.666268775580401e-01
-1.574565560063602e-01 1.433782154352223e-16 4.576913666940560e-01
-2.791539635192191e-01 1.199570602272283e-16 7.629588116185239e-01
-2.451277482421975e-01 -6.097999298777701e-17 7.762451942576295e-01
-2.451277482421969e-01 1.402651554097378e-16 7.762451942576289e-01
-2.791539635192185e-01 7.676125215599498e-17 7.629588116185232e-01
-1.287670683369519e-01 5.627680592242963e-17 4.666268775580406e-01
-1.001362110367043e-01 -8.277425015835252e-17 4.755392730860036e-01
-1.001362110367036e-01 5.959809785510896e-17 4.755392730860030e-01
-1.287670683369513e-01 -1.046486168465399e-16 4.666268775580401e-01
-2.451277482421975e-01 -6.097999298777701e-17 7.762451942576295e-01
-2.111032020792880e-01 -9.521773003233808e-17 7.895378333377233e-01
-2.111032020792876e-01 -2.577297861530642e-17 7.895378333377228e-01
-2.451277482421969e-01 1.402651554097378e-16 7.762451942576289e-01
-1.001362110367043e-01 -8.277425015835252e-17 4.755392730860036e-01
-7.151100485028211e-02 -6.262279070834982e-17 4.844497372097343e-01
-7.151100485028154e-02 -5.788330594822265e-17 4.844497372097337e-01
-1.001362110367036e-01 5.959809785510896e-17 4.755392730860030e-01
-2.111032020792880e-01 -9.521773003233808e-17 7.895378333377233e-01
-1.770766547691265e-01 -6.278025645625731e-17 8.028315834847471e-01
-1.770766547691257e-01 -3.984742369086759e-16 8.028315834847465e-01
-2.111032020792876e-01 -2.577297861530642e-17 7.895378333377228e-01
-7.151100485028211e-02 -6.262279070834982e-17 4.844497372097343e-01
-4.288698903982575e-02 -1.223302047966374e-16 4.933444293215393e-01
-4.288698903982505e-02 5.700260188746027e-17 4.933444293215387e-01
-7.151100485028154e-02 -5.788330594822265e-17 4.844497372097337e-01
-1.770766547691265e-01 -6.278025645625731e-17 8.028315834847471e-01
-1.429955999225229e-01 -3.361306719641510e-16 8.161656644759436e-01
-1.429955999225223e-01 4.599030779305347e-17 8.161656644759432e-01
-1.770766547691257e-01 -3.984742369086759e-16 8.028315834847465e-01
-2.791539635192191e-01 1.199570602272283e-16 7.629588116185239e-01
-2.451277482421975e-01 -6.097999298777701e-17 7.762451942576295e-01
-2.451277482421969e-01 1.402651554097378e-16 7.762451942576289e-01
-2.791539635192185e-01 7.676125215599498e-17 7.629588116185232e-01
-4.400379059348504e-01 -1.260499968237752e-18 1.115069033761965e+00
-4.021168808370886e-01 -3.177006197500903e-17 1.132423602745781e+00
-4.021168808370878e-01 8.065967031237874e-17 1.132423602745780e+00
-4.400379059348495e-01 -3.624767636256825e-17 1.115069033761965e+00
-2.451277482421975e-01 -6.097999298777701e-17 7.762451942576295e-01
-2.111032020792880e-01 -9.521773003233808e-17 7.895378333377233e-01
-2.111032020792876e-01 -2.577297861530642e-17 7.895378333377228e-01
-2.451277482421969e-01 1.402651554097378e-16 7.762451942576289e-01
-4.021168808370886e-01 -3.177006197500903e-17 1.132423602745781e+00
-3.642319892234557e-01 1.603747362006418e-17 1.149745384829074e+00
-3.642319892234548e-01 8.127745734678199e-18 1.149745384829073e+00
-4.021168808370878e-01 8.065967031237874e-17 1.132423602745780e+00
-2.111032020792880e-01 -9.521773003233808e-17 7.895378333377233e-01
-1.770766547691265e-01 -6.278025645625731e-17 8.028315834847471e-01
-1.770766547691257e-01 -3.984742369086759e-16 8.028315834847465e-01
-2.111032020792876e-01 -2.577297861530642e-17 7.895378333377228e-01
-3.642319892234557e-01 1.603747362006418e-17 1.149745384829074e+00
-3.263434835869357e-01 -1.997813870851420e-16 1.167072227456760e+00
-3.263434835869349e-01 -4.397653412714100e-18 1.167072227456759e+00
-3.642319892234548e-01 8.127745734678199e-18 1.149745384829073e+00
-1.770766547691265e-01 -6.278025645625731e-17 8.028315834847471e-01
-1.429955999225229e-01 -3.361306719641510e-16 8.161656644759436e-01
-1.429955999225223e-01 4.599030779305347e-17 8.161656644759432e-01
-1.770766547691257e-01 -3.984742369086759e-16 8.028315834847465e-01
-3.263434835869357e-01 -1.997813870851420e-16 1.167072227456760e+00
-2.884558774564612e-01 -1.731405521291555e-16 1.184391064886461e+00
-2.884558774564605e-01 -3.494971691268035e-16 1.184391064886460e+00
-3.263434835869349e-01 -4.397653412714100e-18 1.167072227456759e+00
        </DataArray>
        <DataArray type="Float64" Name="nodal_2PK_stresses_xyz" NumberOfComponents="6" format="ascii">
-4.706650837523527e-01 -5.067704658467315e-15 -4.668170022129825e-02 4.681833400832186e-16 8.075543400325968e-16 -1.780482294193887e-03
-2.426386108919013e-01 8.957394092990365e-16 -4.637503153721573e-02 -1.109513971059171e-15 1.927317133600298e-16 6.020992781655488e-03
-2.426386108918921e-01 -2.005962433924193e-15 -4.637503153722249e-02 1.076912312984247e-15 -1.567319643339609e-16 6.020992781650492e-03
-4.706650837523771e-01 2.589630459771173e-15 -4.668170022128080e-02 -6.812660511695902e-16 -1.140573706554988e-16 -1.780482294211279e-03
-4.381212288799336e-01 -3.804831104073785e-16 8.620514738848228e-03 1.779790929318046e-15 -2.863958476966199e-14 4.441155644634469e-03
-2.260820932157755e-01 -3.227074271358736e-15 5.048943463046495e-03 -1.298244645001644e-15 -2.160570316260919e-15 4.913017564023159e-03
-2.260820932157670e-01 -1.535853013949177e-15 5.048943463049948e-03 -6.360096874592037e-16 -1.708250958979043e-15 4.913017564025737e-03
-4.381212288799677e-01 -3.505297475780670e-15 8.620514738800504e-03 7.985006287067148e-15 1.082931794078012e-14 4.441155644705453e-03
-2.426386108919013e-01 8.957394092990365e-16 -4.637503153721573e-02 -1.109513971059171e-15 1.927317133600298e-16 6.020992781655488e-03
-1.055757104175668e-02 -6.440703736145734e-17 -4.598908041237448e-02 -3.199432297928897e-15 3.664164344037321e-15 6.204128403016117e-03
-1.055757104175247e-02 1.932211120843717e-16 -4.598908041237384e-02 6.548730632339272e-16 2.581255882603326e-15 6.204128402995453e-03
-2.426386108918921e-01 -2.005962433924193e-15 -4.637503153722249e-02 1.076912312984247e-15 -1.567319643339609e-16 6.020992781650492e-03
-2.260820932157755e-01 -3.227074271358736e-15 5.048943463046495e-03 -1.298244645001644e-15 -2.160570316260919e-15 4.913017564023159e-03
-9.211336980565298e-03 -7.954818481105240e-16 1.299234617551277e-03 2.147854767307388e-15 9.328470406708008e-15 6.369564415406916e-03
-9.211336980556543e-03 6.938893903907228e-16 1.299234617552811e-03 2.950992624019085e-15 -9.069773223076995e-15 6.369564415401360e-03
-2.260820932157670e-01 -1.535853013949177e-15 5.048943463049948e-03 -6.360096874592037e-16 -1.708250958979043e-15 4.913017564025737e-03
-1.055757104175668e-02 -6.440703736145734e-17 -4.598908041237448e-02 -3.199432297928897e-15 3.664164344037321e-15 6.204128403016117e-03
2.266337205021648e-01 -2.442223674869087e-15 -4.594797089630430e-02 5.841948619328358e-15 1.263560470474432e-15 4.289871699700422e-03
2.266337205021705e-01 -3.644075353858816e-15 -4.594797089632215e-02 -2.597317490925494e-15 -2.154805657845213e-15 4.289871699762596e-03
-1.055757104175247e-02 1.932211120843717e-16 -4.598908041237384e-02 6.548730632339272e-16 2.581255882603326e-15 6.204128402995453e-03
-9.211336980565298e-03 -7.954818481105240e-16 1.299234617551277e-03 2.147854767307388e-15 9.328470406708008e-15 6.369564415406916e-03
2.127177167844801e-01 -9.621487914574261e-16 4.596090313283049e-03 -1.864563333490519e-15 5.873605971364942e-16 4.831075446586534e-03
2.127177167844744e-01 -1.852596535260750e-16 4.596090313298185e-03 1.166152949855283e-15 -6.400802916404544e-15 4.831075446547966e-03
-9.211336980556543e-03 6.938893903907228e-16 1.299234617552811e-03 2.950992624019085e-15 -9.069773223076995e-15 6.369564415401360e-03
2.266337205021648e-01 -2.442223674869087e-15 -4.594797089630430e-02 5.841948619328358e-15 1.263560470474432e-15 4.289871699700422e-03
4.695228379374749e-01 -1.107553231562580e-15 -4.598614382102195e-02 1.999511357589373e-15 -8.293029244770227e-15 9.832856995361867e-03
4.695228379375542e-01 3.476740962246271e-15 -4.598614382100519e-02 -5.650579140291168e-15 4.590476470027488e-15 9.832856995298071e-03
2.266337205021705e-01 -3.644075353858816e-15 -4.594797089632215e-02 -2.597317490925494e-15 -2.154805657845213e-15 4.289871699762596e-03
2.127177167844801e-01 -9.621487914574261e-16 4.596090313283049e-03 -1.864563333490519e-15 5.873605971364942e-16 4.831075446586534e-03
4.404857601653900e-01 6.574193389274567e-17 8.071083578739979e-03 1.845476332554102e-15 5.215992696871877e-15 2.553672693034401e-03
4.404857601653858e-01 -6.208534462053225e-16 8.071083578757994e-03 -1.224510718099813e-15 -1.368925117580914e-14 2.553672693033270e-03
2.127177167844744e-01 -1.852596535260750e-16 4.596090313298185e-03 1.166152949855283e-15 -6.400802916404544e-15 4.831075446547966e-03
-4.381212288799336e-01 -3.804831104073785e-16 8.620514738848228e-03 1.779790929318046e-15 -2.863958476966199e-14 4.441155644634469e-03
-2.260820932157755e-01 -3.227074271358736e-15 5.048943463046495e-03 -1.298244645001644e-15 -2.160570316260919e-15 4.913017564023159e-03
-2.260820932157670e-01 -1.535853013949177e-15 5.048943463049948e-03 -6.360096874592037e-16 -1.708250958979043e-15 4.913017564025737e-03
-4.381212288799677e-01 -3.505297475780670e-15 8.620514738800504e-03 7.985006287067148e-15 1.082931794078012e-14 4.441155644705453e-03
-3.718881915889715e-01 -4.893076256562114e-15 -6.506758917713789e-03 -3.902557456404689e-15 -3.389904293442622e-15 3.284867586538843e-03
-1.903957102656388e-01 -9.106851143318815e-16 -7.726111621865644e-03 1.112002731929978e-15 8.211737410529435e-15 4.390696909640441e-03
-1.903957102656302e-01 -2.464463390194586e-15 -7.726111621862392e-03 5.382617159166946e-16 3.231525601369175e-14 4.390696909634172e-03
-3.718881915889679e-01 6.112185749199725e-15 -6.506758917700261e-03 -1.789021291765949e-15 5.178351975912931e-14 3.284867586502980e-03
-2.260820932157755e-01 -3.227074271358736e-15 5.048943463046495e-03 -1.298244645001644e-15 -2.160570316260919e-15 4.913017564023159e-03
-9.211336980565298e-03 -7.954818481105240e-16 1.299234617551277e-03 2.147854767307388e-15 9.328470406708008e-15 6.369564415406916e-03
-9.211336980556543e-03 6.938893903907228e-16 1.299234617552811e-03 2.950992624019085e-15 -9.069773223076995e-15 6.369564415401360e-03
-2.260820932157670e-01 -1.535853013949177e-15 5.048943463049948e-03 -6.360096874592037e-16 -1.708250958979043e-15 4.913017564025737e-03
-1.903957102656388e-01 -9.106851143318815e-16 -7.726111621865644e-03 1.112002731929978e-15 8.211737410529435e-15 4.390696909640441e-03
-5.335602300033874e-03 -7.260929090714522e-16 -8.903701088545117e-03 -1.421123951463397e-15 6.869676103107206e-15 6.277946424028496e-03
-5.335602300040168e-03 -3.176945490764480e-15 -8.903701088553593e-03 -7.276678545999148e-17 7.344861744911469e-15 6.277946424052517e-03
-1.903957102656302e-01 -2.464463390194586e-15 -7.726111621862392e-03 5.382617159166946e-16 3.231525601369175e-14 4.390696909634172e-03
-9.211336980565298e-03 -7.954818481105240e-16 1.299234617551277e-03 2.147854767307388e-15 9.328470406708008e-15 6.369564415406916e-03
2.127177167844801e-01 -9.621487914574261e-16 4.596090313283049e-03 -1.864563333490519e-15 5.873605971364942e-16 4.831075446586534e-03