<?xml version="1.0" ?> 
<!-- 
# vtk DataFile Version 3.0
-->
<VTKFile type="UnstructuredGrid" version="0.1" compressor="vtkZLibDataCompressor" byte_order="LittleEndian">
  <UnstructuredGrid>
    <FieldData>
      <DataArray type="Float64" Name="TIME" NumberOfTuples="1" format="ascii">
1.000000000000000e-08 
      </DataArray>
    </FieldData>

    <Piece NumberOfPoints="18" NumberOfCells="3" >
      <Points>
        <DataArray type="Float64" NumberOfComponents="3" format="ascii">
-2.500000000000000e+00 0.000000000000000e+00 0.000000000000000e+00
-2.167026562922078e+00 0.000000000000000e+00 1.029306887528395e-02
-1.835224352031726e+00 0.000000000000000e+00 3.979093372393808e-02
-1.505270517843865e+00 0.000000000000000e+00 8.696785609546195e-02
-1.177842210873414e+00 0.000000000000000e+00 1.502980975393552e-01
-8.536165816352951e-01 0.000000000000000e+00 2.282559196051174e-01
-8.536165816352951e-01 0.000000000000000e+00 2.282559196051174e-01
-5.330329943096072e-01 0.000000000000000e+00 3.192428412006626e-01
-2.159501636626270e-01 0.000000000000000e+00 4.217177260524335e-01
9.782573391087959e-02 0.000000000000000e+00 5.342408529375704e-01
4.084885220161473e-01 0.000000000000000e+00 6.553725006332136e-01
7.162320242584101e-01 0.000000000000000e+00 7.836729479165037e-01
7.162320242584101e-01 0.000000000000000e+00 7.836729479165037e-01
1.021368846992920e+00 0.000000000000000e+00 9.177755470521430e-01
1.324422601247240e+00 0.000000000000000e+00 1.056496080410624e+00
1.625903617635621e+00 0.000000000000000e+00 1.198668471928010e+00
1.926322226772317e+00 0.000000000000000e+00 1.343126645540361e+00
2.226188759271578e+00 0.000000000000000e+00 1.488704525183739e+00
        </DataArray>
      </Points>

      <Cells>
        <DataArray type="Int32" Name="connectivity" format="ascii">
0 1 2 3 4 5 6 7 8 9 10 11 12 13 14 15 16 17 
        </DataArray>
        <DataArray type="Int32" Name="offsets" format="ascii">
6 12 18 
        </DataArray>
        <DataArray type="UInt8" Name="types" format="ascii">
4 4 4 
        </DataArray>
      </Cells>

  <PointData>
        <DataArray type="Float64" Name="axial_strain" format="ascii">
0.000000000000000e+00
1.716883823283055e-05
3.225655395443283e-05
4.526314716480683e-05
5.618861786395258e-05
6.503296605187003e-05
6.503296605164799e-05
6.864744575324266e-05
6.631420578243841e-05
5.803324613923521e-05
4.380456682363309e-05
2.362816783563204e-05
2.362816783563204e-05
-1.600453987107288e-06
-2.223030893150125e-05
-3.826139699754982e-05
-4.969371818525304e-05
-5.652727249461087e-05
        </DataArray>
        <DataArray type="Float64" Name="curvature_2" format="ascii">
-1.860696852038387e-01
-1.731859763875039e-01
-1.603022675711691e-01
-1.474185587548343e-01
-1.345348499384994e-01
-1.216511411221646e-01
-1.206599246617033e-01
-1.077196353381026e-01
-9.477934601450200e-02
-8.183905669090136e-02
-6.889876736730072e-02
-5.595847804370008e-02
-5.613425017563901e-02
-4.484562748193884e-02
-3.355700478823866e-02
-2.226838209453847e-02
-1.097975940083827e-02
3.088632928619304e-04
        </DataArray>
        <DataArray type="Float64" Name="curvature_3" format="ascii">
0.000000000000000e+00
0.000000000000000e+00
0.000000000000000e+00
0.000000000000000e+00
0.000000000000000e+00
0.000000000000000e+00
0.000000000000000e+00
0.000000000000000e+00
0.000000000000000e+00
0.000000000000000e+00
0.000000000000000e+00
0.000000000000000e+00
0.000000000000000e+00
0.000000000000000e+00
0.000000000000000e+00
0.000000000000000e+00
0.000000000000000e+00
0.000000000000000e+00
        </DataArray>
        <DataArray type="Float64" Name="displacement" NumberOfComponents="3" format="ascii">
0.000000000000000e+00 0.000000000000000e+00 0.000000000000000e+00
-3.598962554782759e-04 0.000000000000000e+00 1.029306887528395e-02
-1.891018698526148e-03 0.000000000000000e+00 3.979093372393808e-02
-5.270517844065070e-03 0.000000000000000e+00 8.696785609546195e-02
-1.117554420701428e-02 0.000000000000000e+00 1.502980975393552e-01
-2.028324830229511e-02 0.000000000000000e+00 2.282559196051174e-01
-2.028324830229511e-02 0.000000000000000e+00 2.282559196051174e-01
-3.303299430980727e-02 0.000000000000000e+00 3.192428412006626e-01
-4.928349699602710e-02 0.000000000000000e+00 4.217177260524335e-01
-6.884093275572029e-02 0.000000000000000e+00 5.342408529375704e-01
-9.151147798365261e-02 0.000000000000000e+00 6.553725006332136e-01
-1.171013090745898e-01 0.000000000000000e+00 7.836729479165037e-01
-1.171013090745898e-01 0.000000000000000e+00 7.836729479165037e-01
-1.452978196734798e-01 0.000000000000000e+00 9.177755470521430e-01
-1.755773987525600e-01 0.000000000000000e+00 1.056496080410624e+00
-2.074297156975782e-01 0.000000000000000e+00 1.198668471928010e+00
-2.403444398942831e-01 0.000000000000000e+00 1.343126645540361e+00
-2.738112407284223e-01 0.000000000000000e+00 1.488704525183739e+00
        </DataArray>
        <DataArray type="Float64" Name="shear_strain_2" format="ascii">
0.000000000000000e+00
0.000000000000000e+00
0.000000000000000e+00
0.000000000000000e+00
0.000000000000000e+00
0.000000000000000e+00
0.000000000000000e+00
0.000000000000000e+00
0.000000000000000e+00
0.000000000000000e+00
0.000000000000000e+00
0.000000000000000e+00
0.000000000000000e+00
0.000000000000000e+00
0.000000000000000e+00
0.000000000000000e+00
0.000000000000000e+00
0.000000000000000e+00
        </DataArray>
        <DataArray type="Float64" Name="shear_strain_3" format="ascii">
5.462742152960573e-04
5.393892884277392e-04
5.474627522730605e-04
5.704946068320216e-04
6.084848521046223e-04
6.614334880908623e-04
6.614334880907236e-04
7.654996626735456e-04
9.100559827052224e-04
1.095102448185754e-03
1.320639059115141e-03
1.586665815493382e-03
1.586665815493382e-03
1.864339841446416e-03
2.086924034040205e-03
2.254418393274749e-03
2.366822919150047e-03
2.424137611666100e-03
        </DataArray>
        <DataArray type="Float64" Name="twist" format="ascii">
0.000000000000000e+00
0.000000000000000e+00
0.000000000000000e+00
0.000000000000000e+00
0.000000000000000e+00
0.000000000000000e+00
0.000000000000000e+00
0.000000000000000e+00
0.000000000000000e+00
0.000000000000000e+00
0.000000000000000e+00
0.000000000000000e+00
0.000000000000000e+00
0.000000000000000e+00
0.000000000000000e+00
0.000000000000000e+00
0.000000000000000e+00
0.000000000000000e+00
        </DataArray>
  </PointData>
  <CellData>
        <DataArray type="Float64" Name="axial_strain_GPs" NumberOfComponents="3" format="ascii">
0.000000000000000e+00 3.901999087352337e-05 6.503296605187003e-05
6.503296605164799e-05 6.291719091988668e-05 2.362816783563204e-05
2.362816783563204e-05 -3.082069882431870e-05 -5.652727249461087e-05
        </DataArray>
        <DataArray type="Float64" Name="cross_section_radius" format="ascii">
1.706886780539025e-01
1.706886780539025e-01
1.706886780539025e-01
        </DataArray>
        <DataArray type="Float64" Name="curvature_2_GPs" NumberOfComponents="3" format="ascii">
-1.788096080045274e-01 -1.538604131630017e-01 -1.289112183214760e-01
-1.133679638754077e-01 -8.830920135270168e-02 -6.325043882999570e-02
-4.977301728854899e-02 -2.791269344138856e-02 -6.052369594228113e-03
        </DataArray>
        <DataArray type="Float64" Name="curvature_3_GPs" NumberOfComponents="3" format="ascii">
0.000000000000000e+00 0.000000000000000e+00 0.000000000000000e+00
0.000000000000000e+00 0.000000000000000e+00 0.000000000000000e+00
0.000000000000000e+00 0.000000000000000e+00 0.000000000000000e+00
        </DataArray>
        <DataArray type="Float64" Name="element_owner" format="ascii">
0.000000000000000e+00
0.000000000000000e+00
0.000000000000000e+00
        </DataArray>
        <DataArray type="Float64" Name="shear_strain_2_GPs" NumberOfComponents="3" format="ascii">
0.000000000000000e+00 0.000000000000000e+00 0.000000000000000e+00
0.000000000000000e+00 0.000000000000000e+00 0.000000000000000e+00
0.000000000000000e+00 0.000000000000000e+00 0.000000000000000e+00
        </DataArray>
        <DataArray type="Float64" Name="shear_strain_3_GPs" NumberOfComponents="3" format="ascii">
5.462742152960573e-04 5.571088807133362e-04 6.614334880908623e-04
6.614334880907236e-04 9.975179472643814e-04 1.586665815493382e-03
1.586665815493382e-03 2.177557442827383e-03 2.424137611666100e-03
        </DataArray>
        <DataArray type="Float64" Name="twist_GPs" NumberOfComponents="3" format="ascii">
0.000000000000000e+00 0.000000000000000e+00 0.000000000000000e+00
0.000000000000000e+00 0.000000000000000e+00 0.000000000000000e+00
0.000000000000000e+00 0.000000000000000e+00 0.000000000000000e+00
        </DataArray>
      </CellData>

    </Piece>
  </UnstructuredGrid>
</VTKFile>
