<?xml version="1.0" ?> 
<!-- 
# vtk DataFile Version 3.0
-->
<VTKFile type="UnstructuredGrid" version="0.1" compressor="vtkZLibDataCompressor" byte_order="LittleEndian">
  <UnstructuredGrid>
    <FieldData>
      <DataArray type="Float64" Name="TIME" NumberOfTuples="1" format="ascii">
1
      </DataArray>
    </FieldData>

    <Piece NumberOfPoints="160" NumberOfCells="20" >
      <Points>
        <DataArray type="Float64" NumberOfComponents="3" format="ascii">
0.000000000000000e+00 1.000000000000000e+00 1.000000000000000e-01
0.000000000000000e+00 1.000000000000000e+00 4.999999999999999e-02
0.000000000000000e+00 2.000000000000000e+00 4.999999999999999e-02
0.000000000000000e+00 2.000000000000000e+00 1.000000000000000e-01
5.000000000000000e-01 1.000000000000000e+00 1.000000000000000e-01
5.000000000000000e-01 1.000000000000000e+00 5.000000000000001e-02
5.000000000000001e-01 2.000000000000000e+00 5.000000000000000e-02
5.000000000000000e-01 2.000000000000000e+00 1.000000000000000e-01
0.000000000000000e+00 1.000000000000000e+00 4.999999999999999e-02
0.000000000000000e+00 1.000000000000000e+00 0.000000000000000e+00
0.000000000000000e+00 2.000000000000000e+00 0.000000000000000e+00
0.000000000000000e+00 2.000000000000000e+00 4.999999999999999e-02
5.000000000000000e-01 1.000000000000000e+00 5.000000000000001e-02
5.000000000000000e-01 1.000000000000000e+00 0.000000000000000e+00
5.000000000000000e-01 2.000000000000000e+00 0.000000000000000e+00
5.000000000000001e-01 2.000000000000000e+00 5.000000000000000e-02
0.000000000000000e+00 1.000000000000000e+00 0.000000000000000e+00
0.000000000000000e+00 1.000000000000000e+00 -5.000000000000002e-02
0.000000000000000e+00 2.000000000000000e+00 -5.000000000000002e-02
0.000000000000000e+00 2.000000000000000e+00 0.000000000000000e+00
5.000000000000000e-01 1.000000000000000e+00 0.000000000000000e+00
5.000000000000002e-01 1.000000000000000e+00 -5.000000000000002e-02
5.000000000000000e-01 2.000000000000000e+00 -5.000000000000001e-02
5.000000000000000e-01 2.000000000000000e+00 0.000000000000000e+00
0.000000000000000e+00 1.000000000000000e+00 -5.000000000000002e-02
0.000000000000000e+00 1.000000000000000e+00 -1.000000000000000e-01
0.000000000000000e+00 2.000000000000000e+00 -1.000000000000000e-01
0.000000000000000e+00 2.000000000000000e+00 -5.000000000000002e-02
5.000000000000002e-01 1.000000000000000e+00 -5.000000000000002e-02
5.000000000000000e-01 1.000000000000000e+00 -1.000000000000000e-01
5.000000000000000e-01 2.000000000000000e+00 -1.000000000000000e-01
5.000000000000000e-01 2.000000000000000e+00 -5.000000000000001e-02
5.000000000000000e-01 1.000000000000000e+00 1.000000000000000e-01
5.000000000000000e-01 1.000000000000000e+00 5.000000000000001e-02
5.000000000000001e-01 2.000000000000000e+00 5.000000000000000e-02
5.000000000000000e-01 2.000000000000000e+00 1.000000000000000e-01
1.000000000000000e+00 1.000000000000000e+00 1.000000000000000e-01
1.000000000000000e+00 1.000000000000000e+00 5.000000000000000e-02
1.000000000000000e+00 2.000000000000000e+00 5.000000000000001e-02
1.000000000000000e+00 2.000000000000000e+00 1.000000000000000e-01
5.000000000000000e-01 1.000000000000000e+00 5.000000000000001e-02
5.000000000000000e-01 1.000000000000000e+00 0.000000000000000e+00
5.000000000000000e-01 2.000000000000000e+00 0.000000000000000e+00
5.000000000000001e-01 2.000000000000000e+00 5.000000000000000e-02
1.000000000000000e+00 1.000000000000000e+00 5.000000000000000e-02
1.000000000000000e+00 1.000000000000000e+00 -6.938893903907228e-18
1.000000000000000e+00 2.000000000000000e+00 0.000000000000000e+00
1.000000000000000e+00 2.000000000000000e+00 5.000000000000001e-02
5.000000000000000e-01 1.000000000000000e+00 0.000000000000000e+00
5.000000000000002e-01 1.000000000000000e+00 -5.000000000000002e-02
5.000000000000000e-01 2.000000000000000e+00 -5.000000000000001e-02
5.000000000000000e-01 2.000000000000000e+00 0.000000000000000e+00
1.000000000000000e+00 1.000000000000000e+00 -6.938893903907228e-18
1.000000000000000e+00 1.000000000000000e+00 -5.000000000000002e-02
1.000000000000000e+00 2.000000000000000e+00 -5.000000000000002e-02
1.000000000000000e+00 2.000000000000000e+00 0.000000000000000e+00
5.000000000000002e-01 1.000000000000000e+00 -5.000000000000002e-02
5.000000000000000e-01 1.000000000000000e+00 -1.000000000000000e-01
5.000000000000000e-01 2.000000000000000e+00 -1.000000000000000e-01
5.000000000000000e-01 2.000000000000000e+00 -5.000000000000001e-02
1.000000000000000e+00 1.000000000000000e+00 -5.000000000000002e-02
1.000000000000000e+00 1.000000000000000e+00 -1.000000000000000e-01
1.000000000000000e+00 2.000000000000000e+00 -1.000000000000000e-01
1.000000000000000e+00 2.000000000000000e+00 -5.000000000000002e-02
1.000000000000000e+00 1.000000000000000e+00 1.000000000000000e-01
1.000000000000000e+00 1.000000000000000e+00 5.000000000000000e-02
1.000000000000000e+00 2.000000000000000e+00 5.000000000000001e-02
1.000000000000000e+00 2.000000000000000e+00 1.000000000000000e-01
1.500000000000000e+00 1.000000000000000e+00 1.000000000000000e-01
1.500000000000000e+00 1.000000000000000e+00 5.000000000000000e-02
1.500000000000000e+00 2.000000000000000e+00 5.000000000000003e-02
1.500000000000000e+00 2.000000000000000e+00 1.000000000000000e-01
1.000000000000000e+00 1.000000000000000e+00 5.000000000000000e-02
1.000000000000000e+00 1.000000000000000e+00 -6.938893903907228e-18
1.000000000000000e+00 2.000000000000000e+00 0.000000000000000e+00
1.000000000000000e+00 2.000000000000000e+00 5.000000000000001e-02
1.500000000000000e+00 1.000000000000000e+00 5.000000000000000e-02
1.500000000000000e+00 1.000000000000000e+00 0.000000000000000e+00
1.500000000000000e+00 2.000000000000000e+00 0.000000000000000e+00
1.500000000000000e+00 2.000000000000000e+00 5.000000000000003e-02
1.000000000000000e+00 1.000000000000000e+00 -6.938893903907228e-18
1.000000000000000e+00 1.000000000000000e+00 -5.000000000000002e-02
1.000000000000000e+00 2.000000000000000e+00 -5.000000000000002e-02
1.000000000000000e+00 2.000000000000000e+00 0.000000000000000e+00
1.500000000000000e+00 1.000000000000000e+00 0.000000000000000e+00
1.500000000000000e+00 1.000000000000000e+00 -5.000000000000002e-02
1.500000000000000e+00 2.000000000000000e+00 -5.000000000000002e-02
1.500000000000000e+00 2.000000000000000e+00 0.000000000000000e+00
1.000000000000000e+00 1.000000000000000e+00 -5.000000000000002e-02
1.000000000000000e+00 1.000000000000000e+00 -1.000000000000000e-01
1.000000000000000e+00 2.000000000000000e+00 -1.000000000000000e-01
1.000000000000000e+00 2.000000000000000e+00 -5.000000000000002e-02
1.500000000000000e+00 1.000000000000000e+00 -5.000000000000002e-02
1.500000000000000e+00 1.000000000000000e+00 -1.000000000000000e-01
1.500000000000000e+00 2.000000000000000e+00 -1.000000000000000e-01
1.500000000000000e+00 2.000000000000000e+00 -5.000000000000002e-02
1.500000000000000e+00 1.000000000000000e+00 1.000000000000000e-01
1.500000000000000e+00 1.000000000000000e+00 5.000000000000000e-02
1.500000000000000e+00 2.000000000000000e+00 5.000000000000003e-02
1.500000000000000e+00 2.000000000000000e+00 1.000000000000000e-01
2.000000000000000e+00 1.000000000000000e+00 1.000000000000000e-01
2.000000000000000e+00 1.000000000000000e+00 5.000000000000001e-02
2.000000000000000e+00 2.000000000000000e+00 5.000000000000000e-02
2.000000000000000e+00 2.000000000000000e+00 1.000000000000000e-01
1.500000000000000e+00 1.000000000000000e+00 5.000000000000000e-02
1.500000000000000e+00 1.000000000000000e+00 0.000000000000000e+00
1.500000000000000e+00 2.000000000000000e+00 0.000000000000000e+00
1.500000000000000e+00 2.000000000000000e+00 5.000000000000003e-02
2.000000000000000e+00 1.000000000000000e+00 5.000000000000001e-02
2.000000000000000e+00 1.000000000000000e+00 0.000000000000000e+00
2.000000000000000e+00 2.000000000000000e+00 3.469446951953614e-18
2.000000000000000e+00 2.000000000000000e+00 5.000000000000000e-02
1.500000000000000e+00 1.000000000000000e+00 0.000000000000000e+00
1.500000000000000e+00 1.000000000000000e+00 -5.000000000000002e-02
1.500000000000000e+00 2.000000000000000e+00 -5.000000000000002e-02
1.500000000000000e+00 2.000000000000000e+00 0.000000000000000e+00
2.000000000000000e+00 1.000000000000000e+00 0.000000000000000e+00
2.000000000000000e+00 1.000000000000000e+00 -5.000000000000000e-02
2.000000000000000e+00 2.000000000000000e+00 -5.000000000000001e-02
2.000000000000000e+00 2.000000000000000e+00 3.469446951953614e-18
1.500000000000000e+00 1.000000000000000e+00 -5.000000000000002e-02
1.500000000000000e+00 1.000000000000000e+00 -1.000000000000000e-01
1.500000000000000e+00 2.000000000000000e+00 -1.000000000000000e-01
1.500000000000000e+00 2.000000000000000e+00 -5.000000000000002e-02
2.000000000000000e+00 1.000000000000000e+00 -5.000000000000000e-02
2.000000000000000e+00 1.000000000000000e+00 -1.000000000000000e-01
2.000000000000000e+00 2.000000000000000e+00 -1.000000000000000e-01
2.000000000000000e+00 2.000000000000000e+00 -5.000000000000001e-02
2.000000000000000e+00 1.000000000000000e+00 1.000000000000000e-01
2.000000000000000e+00 1.000000000000000e+00 5.000000000000001e-02
2.000000000000000e+00 2.000000000000000e+00 5.000000000000000e-02
2.000000000000000e+00 2.000000000000000e+00 1.000000000000000e-01
2.500000000000000e+00 1.000000000000000e+00 1.000000000000000e-01
2.500000000000000e+00 1.000000000000000e+00 5.000000000000000e-02
2.500000000000000e+00 2.000000000000000e+00 5.000000000000000e-02
2.500000000000000e+00 2.000000000000000e+00 1.000000000000000e-01
2.000000000000000e+00 1.000000000000000e+00 5.000000000000001e-02
2.000000000000000e+00 1.000000000000000e+00 0.000000000000000e+00
2.000000000000000e+00 2.000000000000000e+00 3.469446951953614e-18
2.000000000000000e+00 2.000000000000000e+00 5.000000000000000e-02
2.500000000000000e+00 1.000000000000000e+00 5.000000000000000e-02
2.500000000000000e+00 1.000000000000000e+00 0.000000000000000e+00
2.500000000000000e+00 2.000000000000000e+00 0.000000000000000e+00
2.500000000000000e+00 2.000000000000000e+00 5.000000000000000e-02
2.000000000000000e+00 1.000000000000000e+00 0.000000000000000e+00
2.000000000000000e+00 1.000000000000000e+00 -5.000000000000000e-02
2.000000000000000e+00 2.000000000000000e+00 -5.000000000000001e-02
2.000000000000000e+00 2.000000000000000e+00 3.469446951953614e-18
2.500000000000000e+00 1.000000000000000e+00 0.000000000000000e+00
2.500000000000000e+00 1.000000000000000e+00 -5.000000000000002e-02
2.500000000000000e+00 2.000000000000000e+00 -5.000000000000002e-02
2.500000000000000e+00 2.000000000000000e+00 0.000000000000000e+00
2.000000000000000e+00 1.000000000000000e+00 -5.000000000000000e-02
2.000000000000000e+00 1.000000000000000e+00 -1.000000000000000e-01
2.000000000000000e+00 2.000000000000000e+00 -1.000000000000000e-01
2.000000000000000e+00 2.000000000000000e+00 -5.000000000000001e-02
2.500000000000000e+00 1.000000000000000e+00 -5.000000000000002e-02
2.500000000000000e+00 1.000000000000000e+00 -1.000000000000000e-01
2.500000000000000e+00 2.000000000000000e+00 -1.000000000000000e-01
2.500000000000000e+00 2.000000000000000e+00 -5.000000000000002e-02
        </DataArray>
      </Points>

      <Cells>
        <DataArray type="Int32" Name="connectivity" format="ascii">
0 1 2 3 4 5 6 7 8 9 10 11 12 13 14 15 16 17 18 19 20 21 22 23 24 25 26 27 28 29 30 31 32 33 34 35 36 37 38 39 40 41 42 43 44 45 46 47 48 49 50 51 52 53 54 55 56 57 58 59 60 61 62 63 64 65 66 67 68 69 70 71 72 73 74 75 76 77 78 79 80 81 82 83 84 85 86 87 88 89 90 91 92 93 94 95 96 97 98 99 100 101 102 103 104 105 106 107 108 109 110 111 112 113 114 115 116 117 118 119 120 121 122 123 124 125 126 127 128 129 130 131 132 133 134 135 136 137 138 139 140 141 142 143 144 145 146 147 148 149 150 151 152 153 154 155 156 157 158 159 
        </DataArray>
        <DataArray type="Int32" Name="offsets" format="ascii">
8 16 24 32 40 48 56 64 72 80 88 96 104 112 120 128 136 144 152 160 
        </DataArray>
        <DataArray type="UInt8" Name="types" format="ascii">
12 12 12 12 12 12 12 12 12 12 12 12 12 12 12 12 12 12 12 12 
        </DataArray>
      </Cells>

  <PointData>
        <DataArray type="Float64" Name="displacement" NumberOfComponents="3" format="ascii">
-4.400379059348504e-01 -1.260499968237752e-18 1.115069033761965e+00
-4.021168808370886e-01 -3.177006197500903e-17 1.132423602745781e+00
-4.021168808370878e-01 8.065967031237874e-17 1.132423602745780e+00
-4.400379059348495e-01 -3.624767636256825e-17 1.115069033761965e+00
-6.358533352658929e-01 7.879729667660307e-17 1.501070409402176e+00
-5.952787798006977e-01 -6.645205066843946e-17 1.521816089442392e+00
-5.952787798006968e-01 1.496748018108316e-16 1.521816089442391e+00
-6.358533352658921e-01 2.626135815899419e-18 1.501070409402175e+00
-4.021168808370886e-01 -3.177006197500903e-17 1.132423602745781e+00
-3.642319892234557e-01 1.603747362006418e-17 1.149745384829074e+00
-3.642319892234548e-01 8.127745734678199e-18 1.149745384829073e+00
-4.021168808370878e-01 8.065967031237874e-17 1.132423602745780e+00
-5.952787798006977e-01 -6.645205066843946e-17 1.521816089442392e+00
-5.547047719106053e-01 -1.695180933108431e-16 1.542564262727842e+00
-5.547047719106044e-01 1.443457022178829e-16 1.542564262727841e+00
-5.952787798006968e-01 1.496748018108316e-16 1.521816089442391e+00
-3.642319892234557e-01 1.603747362006418e-17 1.149745384829074e+00
-3.263434835869357e-01 -1.997813870851420e-16 1.167072227456760e+00
-3.263434835869349e-01 -4.397653412714100e-18 1.167072227456759e+00
-3.642319892234548e-01 8.127745734678199e-18 1.149745384829073e+00
-5.547047719106053e-01 -1.695180933108431e-16 1.542564262727842e+00
-5.141350340754033e-01 -1.744012268381082e-17 1.563306399181311e+00
-5.141350340754022e-01 -2.822183957496961e-16 1.563306399181310e+00
-5.547047719106044e-01 1.443457022178829e-16 1.542564262727841e+00
-3.263434835869357e-01 -1.997813870851420e-16 1.167072227456760e+00
-2.884558774564612e-01 -1.731405521291555e-16 1.184391064886461e+00
-2.884558774564605e-01 -3.494971691268035e-16 1.184391064886460e+00
-3.263434835869349e-01 -4.397653412714100e-18 1.167072227456759e+00
-5.141350340754033e-01 -1.744012268381082e-17 1.563306399181311e+00
-4.735327874117172e-01 -1.569067156365765e-16 1.584088754253914e+00
-4.735327874117162e-01 -9.425245728197724e-17 1.584088754253913e+00
-5.141350340754022e-01 -2.822183957496961e-16 1.563306399181310e+00
-6.358533352658929e-01 7.879729667660307e-17 1.501070409402176e+00
-5.952787798006977e-01 -6.645205066843946e-17 1.521816089442392e+00
-5.952787798006968e-01 1.496748018108316e-16 1.521816089442391e+00
-6.358533352658921e-01 2.626135815899419e-18 1.501070409402175e+00
-8.606070329938602e-01 7.562818547733632e-17 1.910851623331796e+00
-8.182080811217919e-01 1.233235228983029e-16 1.934328809599127e+00
-8.182080811217917e-01 4.148732390064332e-16 1.934328809599126e+00
-8.606070329938599e-01 3.189725516170567e-16 1.910851623331796e+00
-5.952787798006977e-01 -6.645205066843946e-17 1.521816089442392e+00
-5.547047719106053e-01 -1.695180933108431e-16 1.542564262727842e+00
-5.547047719106044e-01 1.443457022178829e-16 1.542564262727841e+00
-5.952787798006968e-01 1.496748018108316e-16 1.521816089442391e+00
-8.182080811217919e-01 1.233235228983029e-16 1.934328809599127e+00
-7.758320845137892e-01 1.418563545057319e-16 1.957773060788098e+00
-7.758320845137889e-01 5.526814205290810e-17 1.957773060788098e+00
-8.182080811217917e-01 4.148732390064332e-16 1.934328809599126e+00
-5.547047719106053e-01 -1.695180933108431e-16 1.542564262727842e+00
-5.141350340754033e-01 -1.744012268381082e-17 1.563306399181311e+00
-5.141350340754022e-01 -2.822183957496961e-16 1.563306399181310e+00
-5.547047719106044e-01 1.443457022178829e-16 1.542564262727841e+00
-7.758320845137892e-01 1.418563545057319e-16 1.957773060788098e+00
-7.334503309287040e-01 4.946531346474144e-17 1.981226610647761e+00
-7.334503309287037e-01 3.393567307643122e-17 1.981226610647760e+00
-7.758320845137889e-01 5.526814205290810e-17 1.957773060788098e+00
-5.141350340754033e-01 -1.744012268381082e-17 1.563306399181311e+00
-4.735327874117172e-01 -1.569067156365765e-16 1.584088754253914e+00
-4.735327874117162e-01 -9.425245728197724e-17 1.584088754253913e+00
-5.141350340754022e-01 -2.822183957496961e-16 1.563306399181310e+00
-7.334503309287040e-01 4.946531346474144e-17 1.981226610647761e+00
-6.910703618636278e-01 -1.231613760055006e-17 2.004674922866625e+00
-6.910703618636276e-01 -1.699503730565046e-16 2.004674922866625e+00
-7.334503309287037e-01 3.393567307643122e-17 1.981226610647760e+00
-8.606070329938602e-01 7.562818547733632e-17 1.910851623331796e+00
-8.182080811217919e-01 1.233235228983029e-16 1.934328809599127e+00
-8.182080811217917e-01 4.148732390064332e-16 1.934328809599126e+00
-8.606070329938599e-01 3.189725516170567e-16 1.910851623331796e+00
-1.107215738270135e+00 2.612699947511459e-16 2.336914601245485e+00
-1.063688649380887e+00 3.522400328312476e-16 2.362300474518468e+00
-1.063688649380886e+00 1.004405685651583e-16 2.362300474518468e+00
-1.107215738270135e+00 8.637515027465565e-17 2.336914601245484e+00
-8.182080811217919e-01 1.233235228983029e-16 1.934328809599127e+00
-7.758320845137892e-01 1.418563545057319e-16 1.957773060788098e+00
-7.758320845137889e-01 5.526814205290810e-17 1.957773060788098e+00
-8.182080811217917e-01 4.148732390064332e-16 1.934328809599126e+00
-1.063688649380887e+00 3.522400328312476e-16 2.362300474518468e+00
-1.020160978293152e+00 1.648688018399495e-16 2.387687727223675e+00
-1.020160978293152e+00 1.607000538189151e-16 2.387687727223675e+00
-1.063688649380886e+00 1.004405685651583e-16 2.362300474518468e+00
-7.758320845137892e-01 1.418563545057319e-16 1.957773060788098e+00
-7.334503309287040e-01 4.946531346474144e-17 1.981226610647761e+00
-7.334503309287037e-01 3.393567307643122e-17 1.981226610647760e+00
-7.758320845137889e-01 5.526814205290810e-17 1.957773060788098e+00
-1.020160978293152e+00 1.648688018399495e-16 2.387687727223675e+00
-9.766389869656396e-01 -2.494966686752190e-17 2.413065314053849e+00
-9.766389869656392e-01 2.104017419222715e-17 2.413065314053848e+00
-1.020160978293152e+00 1.607000538189151e-16 2.387687727223675e+00
-7.334503309287040e-01 4.946531346474144e-17 1.981226610647761e+00
-6.910703618636278e-01 -1.231613760055006e-17 2.004674922866625e+00
-6.910703618636276e-01 -1.699503730565046e-16 2.004674922866625e+00
-7.334503309287037e-01 3.393567307643122e-17 1.981226610647760e+00
-9.766389869656396e-01 -2.494966686752190e-17 2.413065314053849e+00
-9.330952966372387e-01 2.262572346544714e-17 2.438479887626635e+00
-9.330952966372382e-01 4.406914205876700e-16 2.438479887626634e+00
-9.766389869656392e-01 2.104017419222715e-17 2.413065314053848e+00
-1.107215738270135e+00 2.612699947511459e-16 2.336914601245485e+00
-1.063688649380887e+00 3.522400328312476e-16 2.362300474518468e+00
-1.063688649380886e+00 1.004405685651583e-16 2.362300474518468e+00
-1.107215738270135e+00 8.637515027465565e-17 2.336914601245484e+00
-1.368295702761728e+00 4.763114954225709e-16 2.773350195161964e+00
-1.324124183463898e+00 4.914861730300821e-16 2.799919998467093e+00
-1.324124183463896e+00 4.956125279461361e-16 2.799919998467092e+00
-1.368295702761727e+00 4.650491323815767e-16 2.773350195161962e+00
-1.063688649380887e+00 3.522400328312476e-16 2.362300474518468e+00
-1.020160978293152e+00 1.648688018399495e-16 2.387687727223675e+00
-1.020160978293152e+00 1.607000538189151e-16 2.387687727223675e+00
-1.063688649380886e+00 1.004405685651583e-16 2.362300474518468e+00
-1.324124183463898e+00 4.914861730300821e-16 2.799919998467093e+00
-1.279969953232088e+00 1.175366944399951e-16 2.826458036646042e+00
-1.279969953232087e+00 4.839655693543429e-16 2.826458036646041e+00
-1.324124183463896e+00 4.956125279461361e-16 2.799919998467092e+00
-1.020160978293152e+00 1.648688018399495e-16 2.387687727223675e+00
-9.766389869656396e-01 -2.494966686752190e-17 2.413065314053849e+00
-9.766389869656392e-01 2.104017419222715e-17 2.413065314053848e+00
-1.020160978293152e+00 1.607000538189151e-16 2.387687727223675e+00
-1.279969953232088e+00 1.175366944399951e-16 2.826458036646042e+00
-1.235809525750715e+00 1.301798527478083e-16 2.853006742412723e+00
-1.235809525750714e+00 8.636757881797901e-17 2.853006742412722e+00
-1.279969953232087e+00 4.839655693543429e-16 2.826458036646041e+00
-9.766389869656396e-01 -2.494966686752190e-17 2.413065314053849e+00
-9.330952966372387e-01 2.262572346544714e-17 2.438479887626635e+00
-9.330952966372382e-01 4.406914205876700e-16 2.438479887626634e+00
-9.766389869656392e-01 2.104017419222715e-17 2.413065314053848e+00
-1.235809525750715e+00 1.301798527478083e-16 2.853006742412723e+00
-1.191651613048107e+00 5.294116385750736e-17 2.879550817720946e+00
-1.191651613048106e+00 5.892185623027063e-17 2.879550817720945e+00
-1.235809525750714e+00 8.636757881797901e-17 2.853006742412722e+00
-1.368295702761728e+00 4.763114954225709e-16 2.773350195161964e+00
-1.324124183463898e+00 4.914861730300821e-16 2.799919998467093e+00
-1.324124183463896e+00 4.956125279461361e-16 2.799919998467092e+00
-1.368295702761727e+00 4.650491323815767e-16 2.773350195161962e+00
-1.636228629422703e+00 7.879276544799466e-16 3.215517822181121e+00
-1.591867212092231e+00 7.300797348099599e-16 3.242449999099192e+00
-1.591867212092229e+00 5.775742287778179e-16 3.242449999099191e+00
-1.636228629422701e+00 8.042060234487333e-16 3.215517822181119e+00
-1.324124183463898e+00 4.914861730300821e-16 2.799919998467093e+00
-1.279969953232088e+00 1.175366944399951e-16 2.826458036646042e+00
-1.279969953232087e+00 4.839655693543429e-16 2.826458036646041e+00
-1.324124183463896e+00 4.956125279461361e-16 2.799919998467092e+00
-1.591867212092231e+00 7.300797348099599e-16 3.242449999099192e+00
-1.547505048679387e+00 5.323065543291927e-16 3.269382996504366e+00
-1.547505048679385e+00 7.618398621342472e-16 3.269382996504365e+00
-1.591867212092229e+00 5.775742287778179e-16 3.242449999099191e+00
-1.279969953232088e+00 1.175366944399951e-16 2.826458036646042e+00
-1.235809525750715e+00 1.301798527478083e-16 2.853006742412723e+00
-1.235809525750714e+00 8.636757881797901e-17 2.853006742412722e+00
-1.279969953232087e+00 4.839655693543429e-16 2.826458036646041e+00
-1.547505048679387e+00 5.323065543291927e-16 3.269382996504366e+00
-1.503149986780739e+00 4.706197869352409e-16 3.296305792921195e+00
-1.503149986780737e+00 6.542070213154888e-16 3.296305792921193e+00
-1.547505048679385e+00 7.618398621342472e-16 3.269382996504365e+00
-1.235809525750715e+00 1.301798527478083e-16 2.853006742412723e+00
-1.191651613048107e+00 5.294116385750736e-17 2.879550817720946e+00
-1.191651613048106e+00 5.892185623027063e-17 2.879550817720945e+00
-1.235809525750714e+00 8.636757881797901e-17 2.853006742412722e+00
-1.503149986780739e+00 4.706197869352409e-16 3.296305792921195e+00
-1.458776334727887e+00 3.659389899321784e-16 3.323264118466076e+00
-1.458776334727885e+00 3.330667206156025e-16 3.323264118466073e+00
-1.503149986780737e+00 6.542070213154888e-16 3.296305792921193e+00
        </DataArray>
        <DataArray type="Float64" Name="nodal_2PK_stresses_xyz" NumberOfComponents="6" format="ascii">
-1.950175267821858e-01 -2.968778673647263e-15 -9.201354853554504e-04 -2.355569099745610e-15 -1.621800819941325e-14 2.409050473827589e-03
-9.712721250840628e-02 6.059077411724789e-16 -1.504775900653616e-03 3.034175172767189e-15 -3.747667647222017e-15 3.287890682324966e-03
-9.712721250840750e-02 1.151055450129827e-15 -1.504775900670551e-03 9.453013683942779e-16 -5.255338343826332e-15 3.287890682325885e-03
-1.950175267821897e-01 6.195185496740353e-16 -9.201354853982130e-04 3.996557929018224e-15 9.912081774715766e-15 2.409050473801441e-03
-1.479840316776794e-01 -1.921627789852276e-15 -6.688260056515844e-04 -2.294349171057280e-15 -2.205536147637285e-15 1.984472713111046e-03
-7.293856191464441e-02 7.961492963761679e-16 -8.722224678498308e-04 -1.826862195633143e-15 6.962548550428264e-15 2.912458885728833e-03
-7.293856191464269e-02 -1.822037676929407e-15 -8.722224678762491e-04 1.680499040663705e-15 -8.792156903288472e-15 2.912458885717274e-03
-1.479840316776873e-01 -3.333338866938044e-16 -6.688260057457079e-04 -3.899999852732763e-15 9.603260210583741e-15 1.984472713049576e-03
-9.712721250840628e-02 6.059077411724789e-16 -1.504775900653616e-03 3.034175172767189e-15 -3.747667647222017e-15 3.287890682324966e-03
1.745424206834766e-03 8.462780769704246e-16 -2.140119037701295e-03 1.138916231557421e-15 1.668919426239966e-14 4.514093055833441e-03
1.745424206831309e-03 8.635358906183074e-16 -2.140119037681601e-03 -7.190390782470938e-16 -2.064932169870527e-14 4.514093055848446e-03
-9.712721250840750e-02 1.151055450129827e-15 -1.504775900670551e-03 9.453013683942779e-16 -5.255338343826332e-15 3.287890682325885e-03
-7.293856191464441e-02 7.961492963761679e-16 -8.722224678498308e-04 -1.826862195633143e-15 6.962548550428264e-15 2.912458885728833e-03
2.771761949673645e-03 3.054448214250478e-16 -1.068968953582142e-03 -5.388244181180267e-16 -7.620436995971960e-15 4.038407444144593e-03
2.771761949666482e-03 4.782187443752727e-15 -1.068968953568209e-03 -1.165976611523717e-15 -5.485707839349454e-15 4.038407444155723e-03
-7.293856191464269e-02 -1.822037676929407e-15 -8.722224678762491e-04 1.680499040663705e-15 -8.792156903288472e-15 2.912458885717274e-03
1.745424206834766e-03 8.462780769704246e-16 -2.140119037701295e-03 1.138916231557421e-15 1.668919426239966e-14 4.514093055833441e-03
1.015232494902076e-01 2.058761007581026e-15 -1.710770988611161e-03 2.754838484708796e-15 9.339337094185575e-15 3.242323814906827e-03
1.015232494902095e-01 1.271694143735197e-16 -1.710770988640660e-03 -3.025072798363801e-15 2.104556276271073e-14 3.242323814895255e-03
1.745424206831309e-03 8.635358906183074e-16 -2.140119037681601e-03 -7.190390782470938e-16 -2.064932169870527e-14 4.514093055848446e-03
2.771761949673645e-03 3.054448214250478e-16 -1.068968953582142e-03 -5.388244181180267e-16 -7.620436995971960e-15 4.038407444144593e-03
7.911913750191688e-02 -2.196871437393526e-15 -7.873545904681205e-04 -1.320221149891921e-15 -1.884340259979746e-14 2.988002925981486e-03
7.911913750191331e-02 -7.819687608173420e-15 -7.873545904444513e-04 -5.571588451262873e-16 1.821236129986898e-15 2.988002925996562e-03
2.771761949666482e-03 4.782187443752727e-15 -1.068968953568209e-03 -1.165976611523717e-15 -5.485707839349454e-15 4.038407444155723e-03
1.015232494902076e-01 2.058761007581026e-15 -1.710770988611161e-03 2.754838484708796e-15 9.339337094185575e-15 3.242323814906827e-03
2.021486695210218e-01 1.034517287377181e-15 -1.230720217776936e-03 1.527001789698437e-15 -7.629130075916735e-15 1.740117355743244e-03
2.021486695210247e-01 -6.480750632084375e-16 -1.230720217832876e-03 -3.067505980025466e-15 5.996781180828461e-14 1.740117355721750e-03
1.015232494902095e-01 1.271694143735197e-16 -1.710770988640660e-03 -3.025072798363801e-15 2.104556276271073e-14 3.242323814895255e-03
7.911913750191688e-02 -2.196871437393526e-15 -7.873545904681205e-04 -1.320221149891921e-15 -1.884340259979746e-14 2.988002925981486e-03
1.560760379515116e-01 2.689268493323472e-16 -5.123902038082953e-04 4.448786746767756e-16 8.588034386112440e-15 1.660449847517872e-03
1.560760379515228e-01 5.539816423239264e-15 -5.123902037635474e-04 -1.801463502012772e-15 -3.776651823076016e-14 1.660449847541756e-03
7.911913750191331e-02 -7.819687608173420e-15 -7.873545904444513e-04 -5.571588451262873e-16 1.821236129986898e-15 2.988002925996562e-03
-1.479840316776794e-01 -1.921627789852276e-15 -6.688260056515844e-04 -2.294349171057280e-15 -2.205536147637285e-15 1.984472713111046e-03
-7.293856191464441e-02 7.961492963761679e-16 -8.722224678498308e-04 -1.826862195633143e-15 6.962548550428264e-15 2.912458885728833e-03
-7.293856191464269e-02 -1.822037676929407e-15 -8.722224678762491e-04 1.680499040663705e-15 -8.792156903288472e-15 2.912458885717274e-03
-1.479840316776873e-01 -3.333338866938044e-16 -6.688260057457079e-04 -3.899999852732763e-15 9.603260210583741e-15 1.984472713049576e-03
-1.058463796011695e-01 4.577000183516194e-15 -3.560183265806225e-04 -3.092149346599771e-16 -4.260025690649118e-14 1.833865754574468e-03
-5.127806779605640e-02 1.141091646774597e-15 -5.465930941276402e-04 -3.001976036343231e-15 -1.876367786596082e-14 2.677015237083529e-03
-5.127806779605608e-02 3.175610594233193e-15 -5.465930940851994e-04 -2.551722643631703e-15 2.813702398232273e-14 2.677015237110224e-03
-1.058463796011432e-01 9.701817869052315e-15 -3.560183265152156e-04 -8.019931395467565e-16 1.522158180137743e-14 1.833865754639784e-03
-7.293856191464441e-02 7.961492963761679e-16 -8.722224678498308e-04 -1.826862195633143e-15 6.962548550428264e-15 2.912458885728833e-03
2.771761949673645e-03 3.054448214250478e-16 -1.068968953582142e-03 -5.388244181180267e-16 -7.620436995971960e-15 4.038407444144593e-03
2.771761949666482e-03 4.782187443752727e-15 -1.068968953568209e-03 -1.165976611523717e-15 -5.485707839349454e-15 4.038407444155723e-03
-7.293856191464269e-02 -1.822037676929407e-15 -8.722224678762491e-04 1.680499040663705e-15 -8.792156903288472e-15 2.912458885717274e-03
-5.127806779605640e-02 1.141091646774597e-15 -5.465930941276402e-04 -3.001976036343231e-15 -1.876367786596082e-14 2.677015237083529e-03
3.600521656866822e-03 -1.721112667475250e-15 -7.446339396681127e-04 -1.698769815183452e-15 7.377081210041067e-15 3.677620926481035e-03
3.600521656861145e-03 -5.192609884855223e-16 -7.446339396783468e-04 -1.515551313825711e-15 2.374539912906594e-14 3.677620926465151e-03
-5.127806779605608e-02 3.175610594233193e-15 -5.465930940851994e-04 -2.551722643631703e-15 2.813702398232273e-14 2.677015237110224e-03
2.771761949673645e-03 3.054448214250478e-16 -1.068968953582142e-03 -5.388244181180267e-16 -7.620436995971960e-15 4.038407444144593e-03
7.911913750191688e-02 -2.196871437393526e-15 -7.873545904681205e-04 -1.320221149891921e-15 -1.884340259979746e-14 2.988002925981486e-03
7.911913750191331e-02 -7.819687608173420e-15 -7.873545904444513e-04 -5.571588451262873e-16 1.821236129986898e-15 2.988002925996562e-03