<?xml version="1.0" ?> 
<!-- 
# vtk DataFile Version 3.0
-->
<VTKFile type="UnstructuredGrid" version="0.1" compressor="vtkZLibDataCompressor" byte_order="LittleEndian">
  <UnstructuredGrid>
    <FieldData>
      <DataArray type="Float64" Name="TIME" NumberOfTuples="1" format="ascii">
1e-08
      </DataArray>
    </FieldData>

    <Piece NumberOfPoints="18" NumberOfCells="3" >
      <Points>
        <DataArray type="Float64" NumberOfComponents="3" format="ascii">
-2.500000000000000e+00 0.000000000000000e+00 0.000000000000000e+00
-2.167026562922078e+00 0.000000000000000e+00 1.029306887528104e-02
-1.835224352031725e+00 0.000000000000000e+00 3.979093372392671e-02
-1.505270517843862e+00 0.000000000000000e+00 8.696785609543692e-02
-1.177842210873407e+00 0.000000000000000e+00 1.502980975393116e-01
-8.536165816352830e-01 0.000000000000000e+00 2.282559196050507e-01
-8.536165816352830e-01 0.000000000000000e+00 2.282559196050507e-01
-5.330329943095873e-01 0.000000000000000e+00 3.192428412005689e-01
-2.159501636625974e-01 0.000000000000000e+00 4.217177260523098e-01
9.782573391092098e-02 0.000000000000000e+00 5.342408529374142e-01
4.084885220162020e-01 0.000000000000000e+00 6.553725006330234e-01
7.162320242584794e-01 0.000000000000000e+00 7.836729479162783e-01
7.162320242584794e-01 0.000000000000000e+00 7.836729479162783e-01
1.021368846993005e+00 0.000000000000000e+00 9.177755470518822e-01
1.324422601247341e+00 0.000000000000000e+00 1.056496080410328e+00
1.625903617635740e+00 0.000000000000000e+00 1.198668471927678e+00
1.926322226772452e+00 0.000000000000000e+00 1.343126645539994e+00
2.226188759271730e+00 0.000000000000000e+00 1.488704525183337e+00
        </DataArray>
      </Points>

      <Cells>
        <DataArray type="Int32" Name="connectivity" format="ascii">
0 1 2 3 4 5 6 7 8 9 10 11 12 13 14 15 16 17 
        </DataArray>
        <DataArray type="Int32" Name="offsets" format="ascii">
6 12 18 
        </DataArray>
        <DataArray type="UInt8" Name="types" format="ascii">
4 4 4 
        </DataArray>
      </Cells>

  <PointData>
        <DataArray type="Float64" Name="displacement" NumberOfComponents="3" format="ascii">
0.000000000000000e+00 0.000000000000000e+00 0.000000000000000e+00
-3.598962554778318e-04 0.000000000000000e+00 1.029306887528104e-02
-1.891018698525038e-03 0.000000000000000e+00 3.979093372392671e-02
-5.270517844061740e-03 0.000000000000000e+00 8.696785609543692e-02
-1.117554420700761e-02 0.000000000000000e+00 1.502980975393116e-01
-2.028324830228301e-02 0.000000000000000e+00 2.282559196050507e-01
-2.028324830228301e-02 0.000000000000000e+00 2.282559196050507e-01
-3.303299430978740e-02 0.000000000000000e+00 3.192428412005689e-01
-4.928349699599757e-02 0.000000000000000e+00 4.217177260523098e-01
-6.884093275567890e-02 0.000000000000000e+00 5.342408529374142e-01
-9.151147798359793e-02 0.000000000000000e+00 6.553725006330234e-01
-1.171013090745205e-01 0.000000000000000e+00 7.836729479162783e-01
-1.171013090745205e-01 0.000000000000000e+00 7.836729479162783e-01
-1.452978196733949e-01 0.000000000000000e+00 9.177755470518822e-01
-1.755773987524585e-01 0.000000000000000e+00 1.056496080410328e+00
-2.074297156974600e-01 0.000000000000000e+00 1.198668471927678e+00
-2.403444398941479e-01 0.000000000000000e+00 1.343126645539994e+00
-2.738112407282700e-01 0.000000000000000e+00 1.488704525183337e+00
        </DataArray>
  </PointData>
  <CellData>
        <DataArray type="Float64" Name="axial_strain_GPs" NumberOfComponents="3" format="ascii">
0.000000000000000e+00 3.901999087352337e-05 6.503296605164799e-05
6.503296605164799e-05 6.291719091988668e-05 2.362816783585409e-05
2.362816783585409e-05 -3.082069882431870e-05 -5.652727249416678e-05
        </DataArray>
        <DataArray type="Float64" Name="cross_section_radius" format="ascii">
1.706886780539025e-01
1.706886780539025e-01
1.706886780539025e-01
        </DataArray>
        <DataArray type="Float64" Name="curvature_2_GPs" NumberOfComponents="3" format="ascii">
-1.788096080044760e-01 -1.538604131629550e-01 -1.289112183214340e-01
-1.133679638753736e-01 -8.830920135268015e-02 -6.325043882998672e-02
-4.977301728854745e-02 -2.791269344138803e-02 -6.052369594228616e-03
        </DataArray>
        <DataArray type="Float64" Name="curvature_3_GPs" NumberOfComponents="3" format="ascii">
0.000000000000000e+00 0.000000000000000e+00 0.000000000000000e+00
0.000000000000000e+00 0.000000000000000e+00 0.000000000000000e+00
0.000000000000000e+00 0.000000000000000e+00 0.000000000000000e+00
        </DataArray>
        <DataArray type="Float64" Name="element_owner" format="ascii">
0.000000000000000e+00
0.000000000000000e+00
0.000000000000000e+00
        </DataArray>
        <DataArray type="Float64" Name="shear_strain_2_GPs" NumberOfComponents="3" format="ascii">
0.000000000000000e+00 0.000000000000000e+00 0.000000000000000e+00
0.000000000000000e+00 0.000000000000000e+00 0.000000000000000e+00
0.000000000000000e+00 0.000000000000000e+00 0.000000000000000e+00
        </DataArray>
        <DataArray type="Float64" Name="shear_strain_3_GPs" NumberOfComponents="3" format="ascii">
5.462742152959906e-04 5.571088807133084e-04 6.614334880904738e-04
6.614334880905293e-04 9.975179472634932e-04 1.586665815491550e-03
1.586665815491550e-03 2.177557442824163e-03 2.424137611663491e-03
        </DataArray>
        <DataArray type="Float64" Name="twist_GPs" NumberOfComponents="3" format="ascii">
0.000000000000000e+00 0.000000000000000e+00 0.000000000000000e+00
0.000000000000000e+00 0.000000000000000e+00 0.000000000000000e+00
0.000000000000000e+00 0.000000000000000e+00 0.000000000000000e+00
        </DataArray>
      </CellData>

    </Piece>
  </UnstructuredGrid>
</VTKFile>
