<?xml version="1.0" ?> 
<!-- 
# vtk DataFile Version 3.0
-->
<VTKFile type="UnstructuredGrid" version="0.1" compressor="vtkZLibDataCompressor" byte_order="LittleEndian">
  <UnstructuredGrid>
    <FieldData>
      <DataArray type="Float64" Name="TIME" NumberOfTuples="1" format="ascii">
1.000000000000000e+00 
      </DataArray>
    </FieldData>

    <Piece NumberOfPoints="18" NumberOfCells="3" >
      <Points>
        <DataArray type="Float64" NumberOfComponents="3" format="ascii">
-2.500000000000000e+00 0.000000000000000e+00 0.000000000000000e+00
-2.169743516220088e+00 0.000000000000000e+00 2.845568933482648e-02
-1.848078765302483e+00 0.000000000000000e+00 1.078878001611713e-01
-1.538662797880177e+00 0.000000000000000e+00 2.315789935730170e-01
-1.245152664586165e+00 0.000000000000000e+00 3.928119306643466e-01
-9.712054160534396e-01 0.000000000000000e+00 5.848692725291426e-01
-9.712054160534396e-01 0.000000000000000e+00 5.848692725291426e-01
-7.182209850480350e-01 0.000000000000000e+00 8.013156675245592e-01
-4.840191733735522e-01 0.000000000000000e+00 1.037874764790473e+00
-2.668868352198090e-01 0.000000000000000e+00 1.291067726594583e+00
-6.511082477662380e-02 0.000000000000000e+00 1.557415715204586e+00
1.230220037661851e-01 0.000000000000000e+00 1.833439892888180e+00
1.230220037661851e-01 0.000000000000000e+00 1.833439892888180e+00
2.996106711961282e-01 0.000000000000000e+00 2.116349411201142e+00
4.671197011673440e-01 0.000000000000000e+00 2.404719310607212e+00
6.278104937902845e-01 0.000000000000000e+00 2.697119586736535e+00
7.839444491754020e-01 0.000000000000000e+00 2.992120235219256e+00
9.377829674331479e-01 0.000000000000000e+00 3.288291251685517e+00
        </DataArray>
      </Points>

      <Cells>
        <DataArray type="Int32" Name="connectivity" format="ascii">
0 1 2 3 4 5 6 7 8 9 10 11 12 13 14 15 16 17 
        </DataArray>
        <DataArray type="Int32" Name="offsets" format="ascii">
6 12 18 
        </DataArray>
        <DataArray type="UInt8" Name="types" format="ascii">
4 4 4 
        </DataArray>
      </Cells>

  <PointData>
        <DataArray type="Float64" Name="axial_strain" format="ascii">
0.000000000000000e+00
1.781416834656025e-04
3.342860370259793e-04
4.684330606811304e-04
5.805827544310561e-04
6.707351182757559e-04
6.707351182757559e-04
7.424636293499454e-04
8.027760132987982e-04
8.516722701223145e-04
8.891523998204941e-04
9.152164023933373e-04
9.152164023933373e-04
9.354950045103206e-04
9.510778768579443e-04
9.619650194362083e-04
9.681564322451130e-04
9.696521152846582e-04
        </DataArray>
        <DataArray type="Float64" Name="curvature_2" format="ascii">
-5.126968215147647e-01
-4.662615698349684e-01
-4.198263181551721e-01
-3.733910664753757e-01
-3.269558147955793e-01
-2.805205631157829e-01
-2.806125284984756e-01
-2.480533849367318e-01
-2.154942413749880e-01
-1.829350978132442e-01
-1.503759542515004e-01
-1.178168106897566e-01
-1.195534297278108e-01
-9.546394458506295e-02
-7.137445944231512e-02
-4.728497429956725e-02
-2.319548915681938e-02
8.939959859285019e-04
        </DataArray>
        <DataArray type="Float64" Name="curvature_3" format="ascii">
0.000000000000000e+00
0.000000000000000e+00
0.000000000000000e+00
0.000000000000000e+00
0.000000000000000e+00
0.000000000000000e+00
0.000000000000000e+00
0.000000000000000e+00
0.000000000000000e+00
0.000000000000000e+00
0.000000000000000e+00
0.000000000000000e+00
0.000000000000000e+00
0.000000000000000e+00
0.000000000000000e+00
0.000000000000000e+00
0.000000000000000e+00
0.000000000000000e+00
        </DataArray>
        <DataArray type="Float64" Name="displacement" NumberOfComponents="3" format="ascii">
0.000000000000000e+00 0.000000000000000e+00 0.000000000000000e+00
-3.076849553488525e-03 0.000000000000000e+00 2.845568933482648e-02
-1.474543196928302e-02 0.000000000000000e+00 1.078878001611713e-01
-3.866279788037708e-02 0.000000000000000e+00 2.315789935730170e-01
-7.848599791976496e-02 0.000000000000000e+00 3.928119306643466e-01
-1.378720827204396e-01 0.000000000000000e+00 5.848692725291426e-01
-1.378720827204396e-01 0.000000000000000e+00 5.848692725291426e-01
-2.182209850482351e-01 0.000000000000000e+00 8.013156675245592e-01
-3.173525067069523e-01 0.000000000000000e+00 1.037874764790473e+00
-4.335535018864090e-01 0.000000000000000e+00 1.291067726594583e+00
-5.651108247764237e-01 0.000000000000000e+00 1.557415715204586e+00
-7.103113295668149e-01 0.000000000000000e+00 1.833439892888180e+00
-7.103113295668149e-01 0.000000000000000e+00 1.833439892888180e+00
-8.670559954702719e-01 0.000000000000000e+00 2.116349411201142e+00
-1.032880298832456e+00 0.000000000000000e+00 2.404719310607212e+00
-1.205522839542915e+00 0.000000000000000e+00 2.697119586736535e+00
-1.382722217491198e+00 0.000000000000000e+00 2.992120235219256e+00
-1.562217032566852e+00 0.000000000000000e+00 3.288291251685517e+00
        </DataArray>
        <DataArray type="Float64" Name="material_axial_force" format="ascii">
0.000000000000000e+00
1.630515210836586e-04
3.059690789586521e-04
4.287526736249806e-04
5.314023050826441e-04
6.139179733316426e-04
6.139179733316426e-04
6.795704506642199e-04
7.347738469257184e-04
7.795281621161381e-04
8.138333962354790e-04
8.376895492837411e-04
8.376895492837411e-04
8.562503760161485e-04
8.705132424587636e-04
8.804781486115867e-04
8.861450944746175e-04
8.875140800478562e-04
        </DataArray>
        <DataArray type="Float64" Name="material_bending_moment_2" format="ascii">
-3.417978810098432e-03
-3.108410465566457e-03
-2.798842121034481e-03
-2.489273776502505e-03
-2.179705431970529e-03
-1.870137087438553e-03
-1.870750189989837e-03
-1.653689232911545e-03
-1.436628275833253e-03
-1.219567318754961e-03
-1.002506361676669e-03
-7.854454045983772e-04
-7.970228648520723e-04
-6.364262972337533e-04
-4.758297296154341e-04
-3.152331619971151e-04
-1.546365943787959e-04
5.959973239523275e-06
        </DataArray>
        <DataArray type="Float64" Name="material_bending_moment_3" format="ascii">
0.000000000000000e+00
0.000000000000000e+00
0.000000000000000e+00
0.000000000000000e+00
0.000000000000000e+00
0.000000000000000e+00
0.000000000000000e+00
0.000000000000000e+00
0.000000000000000e+00
0.000000000000000e+00
0.000000000000000e+00
0.000000000000000e+00
0.000000000000000e+00
0.000000000000000e+00
0.000000000000000e+00
0.000000000000000e+00
0.000000000000000e+00
0.000000000000000e+00
        </DataArray>
        <DataArray type="Float64" Name="material_shear_force_2" format="ascii">
0.000000000000000e+00
0.000000000000000e+00
0.000000000000000e+00
0.000000000000000e+00
0.000000000000000e+00
0.000000000000000e+00
0.000000000000000e+00
0.000000000000000e+00
0.000000000000000e+00
0.000000000000000e+00
0.000000000000000e+00
0.000000000000000e+00
0.000000000000000e+00
0.000000000000000e+00
0.000000000000000e+00
0.000000000000000e+00
0.000000000000000e+00
0.000000000000000e+00
        </DataArray>
        <DataArray type="Float64" Name="material_shear_force_3" format="ascii">
1.000000000000000e-03
9.798871303852935e-04
9.487676781666114e-04
9.066416433439539e-04
8.535090259173209e-04
7.893698258867124e-04
7.893698258866363e-04
7.304625825057729e-04
6.766866483273862e-04
6.280420233514763e-04
5.845287075780434e-04
5.461467010070870e-04
5.461467010070871e-04
5.154975575006468e-04
4.916363752539447e-04
4.745631542669805e-04
4.642778945397543e-04
4.607805960722661e-04
        </DataArray>
        <DataArray type="Float64" Name="material_torque" format="ascii">
0.000000000000000e+00
0.000000000000000e+00
0.000000000000000e+00
0.000000000000000e+00
0.000000000000000e+00
0.000000000000000e+00
0.000000000000000e+00
0.000000000000000e+00
0.000000000000000e+00
0.000000000000000e+00
0.000000000000000e+00
0.000000000000000e+00
0.000000000000000e+00
0.000000000000000e+00
0.000000000000000e+00
0.000000000000000e+00
0.000000000000000e+00
0.000000000000000e+00
        </DataArray>
        <DataArray type="Float64" Name="shear_strain_2" format="ascii">
0.000000000000000e+00
0.000000000000000e+00
0.000000000000000e+00
0.000000000000000e+00
0.000000000000000e+00
0.000000000000000e+00
0.000000000000000e+00
0.000000000000000e+00
0.000000000000000e+00
0.000000000000000e+00
0.000000000000000e+00
0.000000000000000e+00
0.000000000000000e+00
0.000000000000000e+00
0.000000000000000e+00
0.000000000000000e+00
0.000000000000000e+00
0.000000000000000e+00
        </DataArray>
        <DataArray type="Float64" Name="shear_strain_3" format="ascii">
2.185096861184158e-03
2.141148292919657e-03
2.073149275554844e-03
1.981099809089721e-03
1.864999893524286e-03
1.724849528858541e-03
1.724849528858374e-03
1.596131496245838e-03
1.478625871265400e-03
1.372332653917059e-03
1.277251844200815e-03
1.193383442116669e-03
1.193383442116669e-03
1.126412094842764e-03
1.074273100411351e-03
1.036966458822432e-03
1.014492170076007e-03
1.006850234172074e-03
        </DataArray>
        <DataArray type="Float64" Name="twist" format="ascii">
0.000000000000000e+00
0.000000000000000e+00
0.000000000000000e+00
0.000000000000000e+00
0.000000000000000e+00
0.000000000000000e+00
0.000000000000000e+00
0.000000000000000e+00
0.000000000000000e+00
0.000000000000000e+00
0.000000000000000e+00
0.000000000000000e+00
0.000000000000000e+00
0.000000000000000e+00
0.000000000000000e+00
0.000000000000000e+00
0.000000000000000e+00
0.000000000000000e+00
        </DataArray>
  </PointData>
  <CellData>
        <DataArray type="Float64" Name="axial_strain_GPs" NumberOfComponents="3" format="ascii">
0.000000000000000e+00 4.041092150917081e-04 6.707351182757559e-04
6.707351182757559e-04 8.286511576012234e-04 9.152164023933373e-04
9.152164023933373e-04 9.571084143682462e-04 9.696521152846582e-04
        </DataArray>
        <DataArray type="Float64" Name="cross_section_radius" format="ascii">
1.706886780539025e-01
1.706886780539025e-01
1.706886780539025e-01
        </DataArray>
        <DataArray type="Float64" Name="curvature_2_GPs" NumberOfComponents="3" format="ascii">
-4.865301705316765e-01 -3.966086923152739e-01 -3.066872140988713e-01
-2.622651799848225e-01 -1.992146695941161e-01 -1.361641592034097e-01
-1.059788042592289e-01 -5.932971687094118e-02 -1.268062948265345e-02
        </DataArray>
        <DataArray type="Float64" Name="curvature_3_GPs" NumberOfComponents="3" format="ascii">
0.000000000000000e+00 0.000000000000000e+00 0.000000000000000e+00
0.000000000000000e+00 0.000000000000000e+00 0.000000000000000e+00
0.000000000000000e+00 0.000000000000000e+00 0.000000000000000e+00
        </DataArray>
        <DataArray type="Float64" Name="element_owner" format="ascii">
0.000000000000000e+00
0.000000000000000e+00
0.000000000000000e+00
        </DataArray>
        <DataArray type="Float64" Name="material_axial_force_GPs" NumberOfComponents="3" format="ascii">
0.000000000000000e+00 3.698776216928995e-04 6.139179733316426e-04
6.139179733316426e-04 7.584571396548131e-04 8.376895492837411e-04
8.376895492837411e-04 8.760329405713992e-04 8.875140800478563e-04
        </DataArray>
        <DataArray type="Float64" Name="material_bending_moment_2_GPs" NumberOfComponents="3" format="ascii">
-3.243534470211177e-03 -2.644057948768493e-03 -2.044581427325809e-03
-1.748434533232150e-03 -1.328097797294107e-03 -9.077610613560647e-04
-7.065253617281928e-04 -3.955314458062746e-04 -8.453752988435632e-05
        </DataArray>
        <DataArray type="Float64" Name="material_bending_moment_3_GPs" NumberOfComponents="3" format="ascii">
0.000000000000000e+00 0.000000000000000e+00 0.000000000000000e+00
0.000000000000000e+00 0.000000000000000e+00 0.000000000000000e+00
0.000000000000000e+00 0.000000000000000e+00 0.000000000000000e+00
        </DataArray>
        <DataArray type="Float64" Name="material_shear_force_2_GPs" NumberOfComponents="3" format="ascii">
0.000000000000000e+00 0.000000000000000e+00 0.000000000000000e+00
0.000000000000000e+00 0.000000000000000e+00 0.000000000000000e+00
0.000000000000000e+00 0.000000000000000e+00 0.000000000000000e+00
        </DataArray>
        <DataArray type="Float64" Name="material_shear_force_3_GPs" NumberOfComponents="3" format="ascii">
1.000000000000000e-03 9.290804835807796e-04 7.893698258867125e-04
7.893698258866363e-04 6.517229221891217e-04 5.461467010070871e-04
5.461467010070871e-04 4.822512696029954e-04 4.607805960722662e-04
        </DataArray>
        <DataArray type="Float64" Name="material_torque_GPs" NumberOfComponents="3" format="ascii">
0.000000000000000e+00 0.000000000000000e+00 0.000000000000000e+00
0.000000000000000e+00 0.000000000000000e+00 0.000000000000000e+00
0.000000000000000e+00 0.000000000000000e+00 0.000000000000000e+00
        </DataArray>
        <DataArray type="Float64" Name="shear_strain_2_GPs" NumberOfComponents="3" format="ascii">
0.000000000000000e+00 0.000000000000000e+00 0.000000000000000e+00
0.000000000000000e+00 0.000000000000000e+00 0.000000000000000e+00
0.000000000000000e+00 0.000000000000000e+00 0.000000000000000e+00
        </DataArray>
        <DataArray type="Float64" Name="shear_strain_3_GPs" NumberOfComponents="3" format="ascii">
2.185096861184158e-03 2.030130848459821e-03 1.724849528858541e-03
1.724849528858374e-03 1.424077711637217e-03 1.193383442116669e-03
1.193383442116669e-03 1.053765735511580e-03 1.006850234172074e-03
        </DataArray>
        <DataArray type="Float64" Name="twist_GPs" NumberOfComponents="3" format="ascii">
0.000000000000000e+00 0.000000000000000e+00 0.000000000000000e+00
0.000000000000000e+00 0.000000000000000e+00 0.000000000000000e+00
0.000000000000000e+00 0.000000000000000e+00 0.000000000000000e+00
        </DataArray>
      </CellData>

    </Piece>
  </UnstructuredGrid>
</VTKFile>
