<?xml version="1.0" ?> 
<!-- 
# vtk DataFile Version 3.0
-->
<VTKFile type="UnstructuredGrid" version="0.1" compressor="vtkZLibDataCompressor" byte_order="LittleEndian">
  <UnstructuredGrid>
    <FieldData>
      <DataArray type="Float64" Name="TIME" NumberOfTuples="1" format="ascii">
1.000000000000000e-08 
      </DataArray>
    </FieldData>

    <Piece NumberOfPoints="90" NumberOfCells="15" >
      <Points>
        <DataArray type="Float64" NumberOfComponents="3" format="ascii">
-4.500000000000000e+00 3.000000000000000e-01 0.000000000000000e+00
-4.399999999999999e+00 3.000000000000000e-01 0.000000000000000e+00
-4.300000000000000e+00 3.000000000000000e-01 0.000000000000000e+00
-4.200000000000000e+00 3.000000000000000e-01 0.000000000000000e+00
-4.100000000000001e+00 3.000000000000000e-01 0.000000000000000e+00
-4.000000000000000e+00 3.000000000000000e-01 0.000000000000000e+00
-4.000000000000000e+00 3.000000000000000e-01 0.000000000000000e+00
-3.871428571428000e+00 3.000000000000000e-01 0.000000000000000e+00
-3.742857142856000e+00 3.000000000000000e-01 0.000000000000000e+00
-3.614285714284000e+00 3.000000000000000e-01 0.000000000000000e+00
-3.485714285712000e+00 3.000000000000000e-01 0.000000000000000e+00
-3.357142857140000e+00 3.000000000000000e-01 0.000000000000000e+00
-3.357142857140000e+00 3.000000000000000e-01 0.000000000000000e+00
-3.285714285712000e+00 3.000000000000000e-01 0.000000000000000e+00
-3.214285714284001e+00 3.000000000000000e-01 0.000000000000000e+00
-3.142857142856000e+00 3.000000000000000e-01 0.000000000000000e+00
-3.071428571428000e+00 3.000000000000000e-01 0.000000000000000e+00
-3.000000000000000e+00 3.000000000000000e-01 0.000000000000000e+00
-3.000000000000000e+00 3.000000000000000e-01 0.000000000000000e+00
-2.842857142858000e+00 3.000000000000000e-01 0.000000000000000e+00
-2.685714285716000e+00 3.000000000000000e-01 0.000000000000000e+00
-2.528571428574000e+00 3.000000000000000e-01 0.000000000000000e+00
-2.371428571432000e+00 3.000000000000000e-01 0.000000000000000e+00
-2.214285714290000e+00 3.000000000000000e-01 0.000000000000000e+00
-2.214285714290000e+00 3.000000000000000e-01 0.000000000000000e+00
-2.171428571432000e+00 2.999999999999999e-01 0.000000000000000e+00
-2.128571428574000e+00 3.000000000000000e-01 0.000000000000000e+00
-2.085714285716000e+00 3.000000000000000e-01 0.000000000000000e+00
-2.042857142858000e+00 3.000000000000000e-01 0.000000000000000e+00
-2.000000000000000e+00 3.000000000000000e-01 0.000000000000000e+00
-2.000000000000000e+00 3.000000000000000e-01 0.000000000000000e+00
-1.814285714286000e+00 3.000000000000000e-01 0.000000000000000e+00
-1.628571428572000e+00 3.000000000000000e-01 0.000000000000000e+00
-1.442857142858000e+00 3.000000000000000e-01 0.000000000000000e+00
-1.257142857144000e+00 3.000000000000000e-01 0.000000000000000e+00
-1.071428571430000e+00 3.000000000000000e-01 0.000000000000000e+00
-1.071428571430000e+00 3.000000000000000e-01 0.000000000000000e+00
-1.057142857144000e+00 3.000000000000000e-01 0.000000000000000e+00
-1.042857142858000e+00 3.000000000000000e-01 0.000000000000000e+00
-1.028571428572000e+00 3.000000000000000e-01 0.000000000000000e+00
-1.014285714286000e+00 3.000000000000000e-01 0.000000000000000e+00
-1.000000000000000e+00 3.000000000000000e-01 0.000000000000000e+00
-1.000000000000000e+00 3.000000000000000e-01 0.000000000000000e+00
-7.999999999999999e-01 3.000000000000000e-01 0.000000000000000e+00
-5.999999999999999e-01 3.000000000000000e-01 0.000000000000000e+00
-4.000000000000000e-01 3.000000000000000e-01 0.000000000000000e+00
-1.999999999999999e-01 3.000000000000000e-01 0.000000000000000e+00
1.249000902703301e-16 3.000000000000000e-01 0.000000000000000e+00
-5.551115123125783e-17 3.000000000000000e-01 0.000000000000000e+00
1.428571428571995e-02 3.000000000000000e-01 0.000000000000000e+00
2.857142857143997e-02 3.000000000000000e-01 0.000000000000000e+00
4.285714285715997e-02 3.000000000000000e-01 0.000000000000000e+00
5.714285714287999e-02 3.000000000000000e-01 0.000000000000000e+00
7.142857142860000e-02 3.000000000000000e-01 0.000000000000000e+00
7.142857142860000e-02 3.000000000000000e-01 0.000000000000000e+00
2.571428571428799e-01 3.000000000000000e-01 0.000000000000000e+00
4.428571428571598e-01 3.000000000000000e-01 0.000000000000000e+00
6.285714285714400e-01 3.000000000000000e-01 0.000000000000000e+00
8.142857142857198e-01 3.000000000000000e-01 0.000000000000000e+00
9.999999999999999e-01 3.000000000000000e-01 0.000000000000000e+00
1.000000000000000e+00 3.000000000000000e-01 0.000000000000000e+00
1.042857142858000e+00 3.000000000000000e-01 0.000000000000000e+00
1.085714285716000e+00 3.000000000000000e-01 0.000000000000000e+00
1.128571428574000e+00 3.000000000000000e-01 0.000000000000000e+00
1.171428571432000e+00 2.999999999999999e-01 0.000000000000000e+00
1.214285714290000e+00 3.000000000000000e-01 0.000000000000000e+00
1.214285714290000e+00 3.000000000000000e-01 0.000000000000000e+00
1.371428571432000e+00 2.999999999999999e-01 0.000000000000000e+00
1.528571428574000e+00 3.000000000000000e-01 0.000000000000000e+00
1.685714285716000e+00 3.000000000000000e-01 0.000000000000000e+00
1.842857142858000e+00 3.000000000000000e-01 0.000000000000000e+00
1.999999999999999e+00 2.999999999999999e-01 0.000000000000000e+00
2.000000000000000e+00 3.000000000000000e-01 0.000000000000000e+00
2.071428571428000e+00 3.000000000000000e-01 0.000000000000000e+00
2.142857142856000e+00 3.000000000000000e-01 0.000000000000000e+00
2.214285714284000e+00 3.000000000000000e-01 0.000000000000000e+00
2.285714285712000e+00 2.999999999999999e-01 0.000000000000000e+00
2.357142857140000e+00 3.000000000000000e-01 0.000000000000000e+00
2.357142857140000e+00 3.000000000000000e-01 0.000000000000000e+00
2.485714285712000e+00 3.000000000000000e-01 0.000000000000000e+00
2.614285714284001e+00 3.000000000000000e-01 0.000000000000000e+00
2.742857142856000e+00 3.000000000000000e-01 0.000000000000000e+00
2.871428571428000e+00 3.000000000000000e-01 0.000000000000000e+00
3.000000000000000e+00 3.000000000000000e-01 0.000000000000000e+00
3.000000000000000e+00 3.000000000000000e-01 0.000000000000000e+00
3.100000000000000e+00 3.000000000000000e-01 0.000000000000000e+00
3.199999999999999e+00 2.999999999999999e-01 0.000000000000000e+00
3.300000000000000e+00 3.000000000000000e-01 0.000000000000000e+00
3.400000000000000e+00 3.000000000000000e-01 0.000000000000000e+00
3.500000000000000e+00 3.000000000000000e-01 0.000000000000000e+00
        </DataArray>
      </Points>

      <Cells>
        <DataArray type="Int32" Name="connectivity" format="ascii">
0 1 2 3 4 5 6 7 8 9 10 11 12 13 14 15 16 17 18 19 20 21 22 23 24 25 26 27 28 29 30 31 32 33 34 35 36 37 38 39 40 41 42 43 44 45 46 47 48 49 50 51 52 53 54 55 56 57 58 59 60 61 62 63 64 65 66 67 68 69 70 71 72 73 74 75 76 77 78 79 80 81 82 83 84 85 86 87 88 89 
        </DataArray>
        <DataArray type="Int32" Name="offsets" format="ascii">
6 12 18 24 30 36 42 48 54 60 66 72 78 84 90 
        </DataArray>
        <DataArray type="UInt8" Name="types" format="ascii">
4 4 4 4 4 4 4 4 4 4 4 4 4 4 4 
        </DataArray>
      </Cells>

  <PointData>
        <DataArray type="Float64" Name="displacement" NumberOfComponents="3" format="ascii">
-1.923493182731661e-04 1.187246502808992e-03 7.164562481010784e-03
-2.606216233633774e-04 2.446231793418741e-04 1.080032165838213e-02
-3.380051711774357e-04 -3.665468042208797e-04 1.469366099436128e-02
-4.269377818824083e-04 -7.029011480185754e-04 1.886741942688882e-02
-5.298572756506914e-04 -8.210775521901859e-04 2.334443589390531e-02
-6.492014726511286e-04 -7.777137168746284e-04 2.814754933335131e-02
-6.492014726511286e-04 -7.777137168746284e-04 2.814754933335131e-02
-8.307015252455585e-04 -5.757436830575169e-04 3.483889917199278e-02
-1.048563740150055e-03 -3.207390824503942e-04 4.215560250025667e-02
-1.307969373641527e-03 -1.330756684114753e-04 5.014620038449543e-02
-1.614099681999992e-03 -1.331291942991975e-04 5.885923389106157e-02
-1.972135921504137e-03 -4.412754134717756e-04 6.834324408630751e-02
-1.972135921504137e-03 -4.412754134717756e-04 6.834324408630751e-02
-2.191275993290276e-03 -6.849939381293746e-04 7.390041781036916e-02
-2.420415410818944e-03 -8.636159896305839e-04 7.958894675450712e-02
-2.659993461513022e-03 -9.855376458143827e-04 8.541047406817362e-02
-2.910449432793616e-03 -1.059154984520194e-03 9.136664290082099e-02
-3.172222612082276e-03 -1.092864083587108e-03 9.745909640190151e-02
-3.172222612082720e-03 -1.092864083587108e-03 9.745909640190151e-02
-3.790124987119725e-03 -1.067922969597401e-03 1.113503135777003e-01
-4.469606332499154e-03 -9.798644293300129e-04 1.259265976474359e-01
-5.215344180684589e-03 -9.180898996180020e-04 1.412054448664763e-01
-6.032016064140056e-03 -9.720008172940942e-04 1.572043514901895e-01
-6.924299515328691e-03 -1.230998619191515e-03 1.739408137739435e-01
-6.924299515328691e-03 -1.230998619191515e-03 1.739408137739435e-01
-7.180259674457901e-03 -1.330676697542110e-03 1.786248544641316e-01
-7.439983501327685e-03 -1.416915423150478e-03 1.833436367084365e-01
-7.703493812262874e-03 -1.490710214274937e-03 1.880971189305591e-01
-7.970813423586520e-03 -1.553056489173532e-03 1.928852595542004e-01
-8.241965151623010e-03 -1.604949666105138e-03 1.977080170030612e-01
-8.241965151623010e-03 -1.604949666105082e-03 1.977080170030612e-01
-9.461794816290059e-03 -1.733312035043177e-03 2.190056350049266e-01
-1.075586812960094e-02 -1.765077748471289e-03 2.409491162687546e-01
-1.212604166429010e-02 -1.781244358739553e-03 2.635350777156938e-01
-1.357417199309086e-02 -1.862809418197831e-03 2.867601362668930e-01
-1.510211568873832e-02 -2.090770479196091e-03 3.106209088435005e-01
-1.510211568873832e-02 -2.090770479196091e-03 3.106209088435005e-01
-1.522293333776759e-02 -2.115579130790579e-03 3.124820004746889e-01
-1.534408292563949e-02 -2.139532439053737e-03 3.143456548701868e-01
-1.546556385276343e-02 -2.162650260179755e-03 3.162118647975581e-01
-1.558737551954992e-02 -2.184952450363264e-03 3.180806230243673e-01
-1.570951732640902e-02 -2.206458865798566e-03 3.199519223181785e-01
-1.570951732640902e-02 -2.206458865798566e-03 3.199519223181785e-01
-1.745383155962721e-02 -2.435111802198742e-03 3.464128743021482e-01
-1.926109045253432e-02 -2.566170099520870e-03 3.733506120571717e-01
-2.112964873024881e-02 -2.654119155221568e-03 4.007452897793570e-01
-2.305786111788974e-02 -2.753444366757563e-03 4.285770616648120e-01
-2.504408234057542e-02 -2.918631131585359e-03 4.568260819096447e-01
-2.504408234057544e-02 -2.918631131585303e-03 4.568260819096447e-01
-2.518813154061092e-02 -2.934389972808926e-03 4.588593108545944e-01
-2.533246771024095e-02 -2.950782685281761e-03 4.608945601311669e-01
-2.547709024987555e-02 -2.967829125198218e-03 4.629318225069263e-01
-2.562199855992472e-02 -2.985549148752764e-03 4.649710907494369e-01
-2.576719204079854e-02 -3.003962612139810e-03 4.670123576262628e-01
-2.576719204079854e-02 -3.003962612139810e-03 4.670123576262628e-01
-2.767299816081265e-02 -3.212650567017139e-03 4.936769053228519e-01
-2.961052989454915e-02 -3.365840971458811e-03 5.205627138739498e-01
-3.157805609303632e-02 -3.486128914534037e-03 5.476563190152102e-01
-3.357384560730170e-02 -3.596109485311971e-03 5.749442564822870e-01
-3.559616728837367e-02 -3.718377772861825e-03 6.024130620108339e-01
-3.559616728837389e-02 -3.718377772861825e-03 6.024130620108340e-01
-3.606644198195852e-02 -3.750724541221440e-03 6.087762807314092e-01
-3.653801616487673e-02 -3.785206655820661e-03 6.151482489782144e-01
-3.701086856219704e-02 -3.822101798682809e-03 6.215288012823655e-01
-3.748497789898986e-02 -3.861687651830759e-03 6.279177721749795e-01
-3.796032290032381e-02 -3.904241897287941e-03 6.343149961871722e-01
-3.796032290032381e-02 -3.904241897287941e-03 6.343149961871722e-01
-3.970953313194814e-02 -4.052084310651183e-03 6.578128096724957e-01
-4.146660541296909e-02 -4.176731355037988e-03 6.813619913019238e-01
-4.323121528405482e-02 -4.285303762029125e-03 7.049604024064149e-01
-4.500303828587127e-02 -4.384922263204916e-03 7.286059043169271e-01
-4.678174995908391e-02 -4.482707590146018e-03 7.522963583644184e-01
-4.678174995908413e-02 -4.482707590146129e-03 7.522963583644184e-01
-4.759244475423507e-02 -4.528475425987610e-03 7.630790283254341e-01
-4.840446532016029e-02 -4.576004471233852e-03 7.738703431925746e-01
-4.921778118547282e-02 -4.625963464763572e-03 7.846701021141274e-01
-5.003236187878413e-02 -4.679021145455375e-03 7.954781042383787e-01
-5.084817692870791e-02 -4.735846252188203e-03 8.062941487136158e-01
-5.084817692870791e-02 -4.735846252188203e-03 8.062941487136158e-01
-5.231665434751021e-02 -4.836026897867107e-03 8.257630118030317e-01
-5.378355442869243e-02 -4.926042026419886e-03 8.452202308389591e-01
-5.524975809341370e-02 -5.008332781773872e-03 8.646697434545029e-01
-5.671614626283539e-02 -5.085340307856179e-03 8.841154872827683e-01
-5.818359985811661e-02 -5.159505748594029e-03 9.035613999568599e-01
-5.818359985811661e-02 -5.159505748594029e-03 9.035613999568599e-01
-5.932625316359852e-02 -5.216787771068709e-03 9.186886360975635e-01
-6.047049836893459e-02 -5.274975825370620e-03 9.338202090906177e-01
-6.161674995417776e-02 -5.335218488134896e-03 9.489579716221060e-01
-6.276542239937966e-02 -5.398664335996783e-03 9.641037763781122e-01
-6.391693018459232e-02 -5.466461945591305e-03 9.792594760447196e-01
        </DataArray>
        <DataArray type="Float64" Name="lambda" NumberOfComponents="3" format="ascii">
-1.924824197525227e-04 1.452349915474514e-03 -4.859789778569757e-04
-1.513203484188699e-04 8.056583775589932e-04 -2.165704530815047e-04
-1.137734035527523e-04 2.757965905152846e-04 4.656110060789629e-06
-7.984158515416979e-05 -1.372354456566117e-04 1.777007115699073e-04
-4.952489322312248e-05 -4.334377309566954e-04 3.025633514458481e-04
-2.282332775961036e-05 -6.128102653849667e-04 3.792440296886121e-04
-2.282332775961036e-05 -6.128102653849667e-04 3.792440296886121e-04
6.195233843336588e-06 -6.717638900013427e-04 4.070354887029549e-04
2.923777006112126e-05 -5.375907835830063e-04 3.551792152209302e-04
4.630428089374364e-05 -2.102909461299573e-04 2.236752092425382e-04
5.739476634120377e-05 3.101356223578044e-04 1.252347076777864e-05
6.250922640350161e-05 1.023688921880279e-03 -2.782760002033483e-04
6.250922640350161e-05 1.023688921880279e-03 -2.782760002033483e-04
5.247672757176441e-05 7.125794473940908e-04 -1.589058752996710e-04
4.383564299144146e-05 4.395979036400727e-04 -5.393384722280695e-05
3.658597266253278e-05 2.047442906182244e-04 3.664008402724366e-05
3.072771658503836e-05 8.018608328545784e-06 1.128159184504809e-04
2.626087475895821e-05 -1.505791432289632e-04 1.745936560469048e-04
2.626087475895821e-05 -1.505791432289631e-04 1.745936560469047e-04
2.133160090655609e-05 -3.652838804785574e-04 2.598233779287825e-04
2.313677203103328e-05 -3.954494329835110e-04 2.753663111685287e-04
3.167638813238979e-05 -2.410758007438239e-04 2.212224557661435e-04
4.695044921062561e-05 9.783701624050371e-05 9.739181172162681e-05
6.895895526574075e-05 6.212890179694722e-04 -9.612562096502143e-05
6.895895526574075e-05 6.212890179694722e-04 -9.612562096502143e-05
6.194078316745967e-05 5.066800898885701e-04 -5.532201756439082e-05
5.543123304476674e-05 4.002349616294943e-04 -1.741821885574582e-05
4.943030489766195e-05 3.019536331922446e-04 1.758577516091354e-05
4.393799872614528e-05 2.118361045768210e-04 4.968996448558725e-05
3.895431453021675e-05 1.298823757832235e-04 7.889434911827535e-05
3.895431453021675e-05 1.298823757832235e-04 7.889434911827539e-05
2.323575917711396e-05 -1.309132065995197e-04 1.719378283066723e-04
1.706799425408813e-05 -2.384107701123533e-04 2.105294193923512e-04
2.045101976113924e-05 -1.926103147552773e-04 1.946691223753122e-04
3.338483569826729e-05 6.488159471708269e-06 1.243569372555551e-04
5.586944206547228e-05 3.588846525686031e-04 -4.071359669197117e-07
5.586944206547228e-05 3.588846525686031e-04 -4.071359669197117e-07
5.390599724414526e-05 3.365418946836420e-04 7.787023554471291e-06
5.198553584651095e-05 3.147146759048701e-04 1.578813057735200e-05
5.010805787256935e-05 2.934029962322874e-04 2.359618510172243e-05
4.827356332232048e-05 2.726068556658939e-04 3.121118712758256e-05
4.648205219576432e-05 2.523262542056896e-04 3.863313665493241e-05
4.648205219576432e-05 2.523262542056896e-04 3.863313665493241e-05
2.591415591204079e-05 2.252943991628442e-05 1.222699176929554e-04
1.377101067175313e-05 -1.062217095640755e-04 1.680684090244756e-04
1.005261647490134e-05 -1.339271942353904e-04 1.760286106494931e-04
1.475897332148540e-05 -6.058701409766000e-05 1.461505225680077e-04
2.789008121150533e-05 1.137988308491156e-04 7.843414478001965e-05
2.789008121150532e-05 1.137988308491154e-04 7.843414478001971e-05
2.915039316704690e-05 1.301215059272992e-04 7.214936691353447e-05
3.045368854627951e-05 1.469597201116518e-04 6.567153654854651e-05
3.179996734920315e-05 1.643134734021736e-04 5.900065368505584e-05
3.318922957581782e-05 1.821827657988642e-04 5.213671832306245e-05
3.462147522612353e-05 2.005675973017239e-04 4.507973046256633e-05
3.462147522612353e-05 2.005675973017239e-04 4.507973046256633e-05
1.907108659356364e-05 6.112206958829898e-05 1.039774490722922e-04
8.309673286373026e-06 -2.975211077904610e-05 1.416877579599715e-04
2.337235304551678e-06 -7.205494380031130e-05 1.582106571256043e-04
1.153772648099607e-06 -6.578642947549659e-05 1.535461465691906e-04
4.759285317016810e-06 -1.094656780460197e-05 1.276942262907303e-04
4.759285317016818e-06 -1.094656780460186e-05 1.276942262907303e-04
6.271417872651044e-06 8.606491021086785e-06 1.187195356148642e-04
8.038584617220480e-06 3.074618964637442e-05 1.086165213442878e-04
1.006078555072512e-05 5.547252807126105e-05 9.738518347900094e-05
1.233802067316497e-05 8.278550629574672e-05 8.502552201900370e-05
1.487028998454003e-05 1.126851243198314e-04 7.153753696429604e-05
1.487028998454003e-05 1.126851243198314e-04 7.153753696429604e-05
5.849233049376015e-06 4.443727968395981e-05 1.033329270012115e-04
-1.191202547865317e-06 -4.068786147126214e-06 1.260682194603372e-04
-6.251016807183959e-06 -3.283307317342667e-05 1.397434143416732e-04
-9.330209728579922e-06 -4.185558139494157e-05 1.443585116452195e-04
-1.042878131205319e-05 -3.113631081167090e-05 1.399135113709760e-04
-1.042878131205319e-05 -3.113631081167078e-05 1.399135113709759e-04
-1.027338117630305e-05 -1.973770722268585e-05 1.348979831214457e-04
-9.708761755860222e-06 -4.260223715377562e-06 1.280105338847785e-04
-8.734923050724707e-06 1.529613971025411e-05 1.192511636609741e-04
-7.351865060896503e-06 3.893138305420914e-05 1.086198724500326e-04
-5.559587786375614e-06 6.664550631648751e-05 9.611666025195393e-05
-5.559587786375614e-06 6.664550631648751e-05 9.611666025195393e-05
5.035413917729444e-06 3.049213584645316e-05 1.072686681047829e-04
5.390221827612859e-06 3.608273565721105e-06 1.156118380600529e-04
-4.495164056725365e-06 -1.400608052570868e-05 1.211461701177639e-04
-2.462074373528522e-05 -2.235092642783619e-05 1.238716642779159e-04
-5.498651720806673e-05 -2.142626414066142e-05 1.237883205405089e-04
-5.498651720806673e-05 -2.142626414066142e-05 1.237883205405089e-04
-8.568398117410975e-05 -1.429853349017544e-05 1.217815850131149e-04
-1.225761302748738e-04 -1.563322577074964e-06 1.180756759427682e-04
-1.656629645103588e-04 1.677936859864002e-05 1.126705933294689e-04
-2.149444838805648e-04 4.072954003696953e-05 1.055663371732168e-04
-2.704206883854918e-04 7.028719173791354e-05 9.676290747401205e-05
        </DataArray>
        <DataArray type="Float64" Name="uid_0_pair_beam_id" format="ascii">
1.000000000000000e+01
1.000000000000000e+01
1.000000000000000e+01
1.000000000000000e+01
1.000000000000000e+01
1.000000000000000e+01
1.000000000000000e+01
1.000000000000000e+01
1.000000000000000e+01
1.000000000000000e+01
1.000000000000000e+01
1.000000000000000e+01
1.100000000000000e+01
1.100000000000000e+01
1.100000000000000e+01
1.100000000000000e+01
1.100000000000000e+01
1.100000000000000e+01
1.100000000000000e+01
1.100000000000000e+01
1.100000000000000e+01
1.100000000000000e+01
1.100000000000000e+01
1.100000000000000e+01
1.200000000000000e+01
1.200000000000000e+01
1.200000000000000e+01
1.200000000000000e+01
1.200000000000000e+01
1.200000000000000e+01
1.200000000000000e+01
1.200000000000000e+01
1.200000000000000e+01
1.200000000000000e+01
1.200000000000000e+01
1.200000000000000e+01
1.300000000000000e+01
1.300000000000000e+01
1.300000000000000e+01
1.300000000000000e+01
1.300000000000000e+01
1.300000000000000e+01
1.300000000000000e+01
1.300000000000000e+01
1.300000000000000e+01
1.300000000000000e+01
1.300000000000000e+01
1.300000000000000e+01
1.300000000000000e+01
1.300000000000000e+01
1.300000000000000e+01
1.300000000000000e+01
1.300000000000000e+01
1.300000000000000e+01
1.400000000000000e+01
1.400000000000000e+01
1.400000000000000e+01
1.400000000000000e+01
1.400000000000000e+01
1.400000000000000e+01
1.400000000000000e+01
1.400000000000000e+01
1.400000000000000e+01
1.400000000000000e+01
1.400000000000000e+01
1.400000000000000e+01
1.500000000000000e+01
1.500000000000000e+01
1.500000000000000e+01
1.500000000000000e+01
1.500000000000000e+01
1.500000000000000e+01
1.500000000000000e+01
1.500000000000000e+01
1.500000000000000e+01
1.500000000000000e+01
1.500000000000000e+01
1.500000000000000e+01
1.600000000000000e+01
1.600000000000000e+01
1.600000000000000e+01
1.600000000000000e+01
1.600000000000000e+01
1.600000000000000e+01
1.600000000000000e+01
1.600000000000000e+01
1.600000000000000e+01
1.600000000000000e+01
1.600000000000000e+01
1.600000000000000e+01
        </DataArray>
        <DataArray type="Float64" Name="uid_1_pair_solid_id" format="ascii">
0.000000000000000e+00
0.000000000000000e+00
0.000000000000000e+00
0.000000000000000e+00
0.000000000000000e+00
0.000000000000000e+00
1.000000000000000e+00
1.000000000000000e+00
1.000000000000000e+00
1.000000000000000e+00
1.000000000000000e+00
1.000000000000000e+00
1.000000000000000e+00
1.000000000000000e+00
1.000000000000000e+00
1.000000000000000e+00
1.000000000000000e+00
1.000000000000000e+00
2.000000000000000e+00
2.000000000000000e+00
2.000000000000000e+00
2.000000000000000e+00
2.000000000000000e+00
2.000000000000000e+00
2.000000000000000e+00
2.000000000000000e+00
2.000000000000000e+00
2.000000000000000e+00
2.000000000000000e+00
2.000000000000000e+00
3.000000000000000e+00
3.000000000000000e+00
3.000000000000000e+00
3.000000000000000e+00
3.000000000000000e+00
3.000000000000000e+00
3.000000000000000e+00
3.000000000000000e+00
3.000000000000000e+00
3.000000000000000e+00
3.000000000000000e+00
3.000000000000000e+00
4.000000000000000e+00
4.000000000000000e+00
4.000000000000000e+00
4.000000000000000e+00
4.000000000000000e+00
4.000000000000000e+00
5.000000000000000e+00
5.000000000000000e+00
5.000000000000000e+00
5.000000000000000e+00
5.000000000000000e+00
5.000000000000000e+00
5.000000000000000e+00
5.000000000000000e+00
5.000000000000000e+00
5.000000000000000e+00
5.000000000000000e+00
5.000000000000000e+00
6.000000000000000e+00
6.000000000000000e+00
6.000000000000000e+00
6.000000000000000e+00
6.000000000000000e+00
6.000000000000000e+00
6.000000000000000e+00
6.000000000000000e+00
6.000000000000000e+00
6.000000000000000e+00
6.000000000000000e+00
6.000000000000000e+00
7.000000000000000e+00
7.000000000000000e+00
7.000000000000000e+00
7.000000000000000e+00
7.000000000000000e+00
7.000000000000000e+00
7.000000000000000e+00
7.000000000000000e+00
7.000000000000000e+00
7.000000000000000e+00
7.000000000000000e+00
7.000000000000000e+00
8.000000000000000e+00
8.000000000000000e+00
8.000000000000000e+00
8.000000000000000e+00
8.000000000000000e+00
8.000000000000000e+00
        </DataArray>
  </PointData>
  <CellData>
        <DataArray type="Float64" Name="uid_0_pair_beam_id" format="ascii">
1.000000000000000e+01
1.000000000000000e+01
1.100000000000000e+01
1.100000000000000e+01
1.200000000000000e+01
1.200000000000000e+01
1.300000000000000e+01
1.300000000000000e+01
1.300000000000000e+01
1.400000000000000e+01
1.400000000000000e+01
1.500000000000000e+01
1.500000000000000e+01
1.600000000000000e+01
1.600000000000000e+01
        </DataArray>
        <DataArray type="Float64" Name="uid_1_pair_solid_id" format="ascii">
0.000000000000000e+00
1.000000000000000e+00
1.000000000000000e+00
2.000000000000000e+00
2.000000000000000e+00
3.000000000000000e+00
3.000000000000000e+00
4.000000000000000e+00
5.000000000000000e+00
5.000000000000000e+00
6.000000000000000e+00
6.000000000000000e+00
7.000000000000000e+00
7.000000000000000e+00
8.000000000000000e+00
        </DataArray>
      </CellData>

    </Piece>
  </UnstructuredGrid>
</VTKFile>
