<?xml version="1.0" ?> 
<!-- 
# vtk DataFile Version 3.0
-->
<VTKFile type="UnstructuredGrid" version="0.1" compressor="vtkZLibDataCompressor" byte_order="LittleEndian">
  <UnstructuredGrid>
    <FieldData>
      <DataArray type="Float64" Name="TIME" NumberOfTuples="1" format="ascii">
1.000000000000000e-08 
      </DataArray>
    </FieldData>

    <Piece NumberOfPoints="204" NumberOfCells="0" >
      <Points>
        <DataArray type="Float64" NumberOfComponents="3" format="ascii">
-5.000000000000000e+00 -5.000000000000000e-01 5.000000000000000e-01
-5.000000000000000e+00 -5.000000000000000e-01 -5.000000000000000e-01
-5.000000000000000e+00 5.000000000000000e-01 -5.000000000000000e-01
-5.000000000000000e+00 5.000000000000000e-01 5.000000000000000e-01
-4.000000000000000e+00 -5.000000000000000e-01 5.000000000000000e-01
-4.000000000000000e+00 -5.000000000000000e-01 -5.000000000000000e-01
-4.000000000000000e+00 5.000000000000000e-01 -5.000000000000000e-01
-4.000000000000000e+00 5.000000000000000e-01 5.000000000000000e-01
-5.000000000000000e+00 -5.000000000000000e-01 0.000000000000000e+00
-5.000000000000000e+00 0.000000000000000e+00 -5.000000000000000e-01
-5.000000000000000e+00 5.000000000000000e-01 0.000000000000000e+00
-5.000000000000000e+00 0.000000000000000e+00 5.000000000000000e-01
-4.500000000000000e+00 -5.000000000000000e-01 5.000000000000000e-01
-4.500000000000000e+00 -5.000000000000000e-01 -5.000000000000000e-01
-4.500000000000000e+00 5.000000000000000e-01 -5.000000000000000e-01
-4.500000000000000e+00 5.000000000000000e-01 5.000000000000000e-01
-4.000000000000000e+00 -5.000000000000000e-01 0.000000000000000e+00
-4.000000000000000e+00 0.000000000000000e+00 -5.000000000000000e-01
-4.000000000000000e+00 5.000000000000000e-01 0.000000000000000e+00
-4.000000000000000e+00 0.000000000000000e+00 5.000000000000000e-01
-4.500000000000000e+00 0.000000000000000e+00 0.000000000000000e+00
-5.000000000000000e+00 0.000000000000000e+00 0.000000000000000e+00
-4.000000000000000e+00 0.000000000000000e+00 0.000000000000000e+00
-4.500000000000000e+00 0.000000000000000e+00 5.000000000000000e-01
-4.500000000000000e+00 0.000000000000000e+00 -5.000000000000000e-01
-4.500000000000000e+00 -5.000000000000000e-01 0.000000000000000e+00
-4.500000000000000e+00 5.000000000000000e-01 0.000000000000000e+00
-3.000000000000000e+00 -5.000000000000000e-01 5.000000000000000e-01
-3.000000000000000e+00 -5.000000000000000e-01 -5.000000000000000e-01
-3.000000000000000e+00 5.000000000000000e-01 -5.000000000000000e-01
-3.000000000000000e+00 5.000000000000000e-01 5.000000000000000e-01
-3.500000000000000e+00 -5.000000000000000e-01 5.000000000000000e-01
-3.500000000000000e+00 -5.000000000000000e-01 -5.000000000000000e-01
-3.500000000000000e+00 5.000000000000000e-01 -5.000000000000000e-01
-3.500000000000000e+00 5.000000000000000e-01 5.000000000000000e-01
-3.000000000000000e+00 -5.000000000000000e-01 0.000000000000000e+00
-3.000000000000000e+00 0.000000000000000e+00 -5.000000000000000e-01
-3.000000000000000e+00 5.000000000000000e-01 0.000000000000000e+00
-3.000000000000000e+00 0.000000000000000e+00 5.000000000000000e-01
-3.500000000000000e+00 0.000000000000000e+00 0.000000000000000e+00
-3.000000000000000e+00 0.000000000000000e+00 0.000000000000000e+00
-3.500000000000000e+00 0.000000000000000e+00 5.000000000000000e-01
-3.500000000000000e+00 0.000000000000000e+00 -5.000000000000000e-01
-3.500000000000000e+00 -5.000000000000000e-01 0.000000000000000e+00
-3.500000000000000e+00 5.000000000000000e-01 0.000000000000000e+00
-2.000000000000000e+00 -5.000000000000000e-01 5.000000000000000e-01
-2.000000000000000e+00 -5.000000000000000e-01 -5.000000000000000e-01
-2.000000000000000e+00 5.000000000000000e-01 -5.000000000000000e-01
-2.000000000000000e+00 5.000000000000000e-01 5.000000000000000e-01
-2.500000000000000e+00 -5.000000000000000e-01 5.000000000000000e-01
-2.500000000000000e+00 -5.000000000000000e-01 -5.000000000000000e-01
-2.500000000000000e+00 5.000000000000000e-01 -5.000000000000000e-01
-2.500000000000000e+00 5.000000000000000e-01 5.000000000000000e-01
-2.000000000000000e+00 -5.000000000000000e-01 0.000000000000000e+00
-2.000000000000000e+00 0.000000000000000e+00 -5.000000000000000e-01
-2.000000000000000e+00 5.000000000000000e-01 0.000000000000000e+00
-2.000000000000000e+00 0.000000000000000e+00 5.000000000000000e-01
-2.500000000000000e+00 0.000000000000000e+00 0.000000000000000e+00
-2.000000000000000e+00 0.000000000000000e+00 0.000000000000000e+00
-2.500000000000000e+00 0.000000000000000e+00 5.000000000000000e-01
-2.500000000000000e+00 0.000000000000000e+00 -5.000000000000000e-01
-2.500000000000000e+00 -5.000000000000000e-01 0.000000000000000e+00
-2.500000000000000e+00 5.000000000000000e-01 0.000000000000000e+00
-1.000000000000000e+00 -5.000000000000000e-01 5.000000000000000e-01
-1.000000000000000e+00 -5.000000000000000e-01 -5.000000000000000e-01
-1.000000000000000e+00 5.000000000000000e-01 -5.000000000000000e-01
-1.000000000000000e+00 5.000000000000000e-01 5.000000000000000e-01
-1.500000000000000e+00 -5.000000000000000e-01 5.000000000000000e-01
-1.500000000000000e+00 -5.000000000000000e-01 -5.000000000000000e-01
-1.500000000000000e+00 5.000000000000000e-01 -5.000000000000000e-01
-1.500000000000000e+00 5.000000000000000e-01 5.000000000000000e-01
-1.000000000000000e+00 -5.000000000000000e-01 0.000000000000000e+00
-1.000000000000000e+00 0.000000000000000e+00 -5.000000000000000e-01
-1.000000000000000e+00 5.000000000000000e-01 0.000000000000000e+00
-1.000000000000000e+00 0.000000000000000e+00 5.000000000000000e-01
-1.500000000000000e+00 0.000000000000000e+00 0.000000000000000e+00
-1.000000000000000e+00 0.000000000000000e+00 0.000000000000000e+00
-1.500000000000000e+00 0.000000000000000e+00 5.000000000000000e-01
-1.500000000000000e+00 0.000000000000000e+00 -5.000000000000000e-01
-1.500000000000000e+00 -5.000000000000000e-01 0.000000000000000e+00
-1.500000000000000e+00 5.000000000000000e-01 0.000000000000000e+00
0.000000000000000e+00 -5.000000000000000e-01 5.000000000000000e-01
0.000000000000000e+00 -5.000000000000000e-01 -5.000000000000000e-01
0.000000000000000e+00 5.000000000000000e-01 -5.000000000000000e-01
0.000000000000000e+00 5.000000000000000e-01 5.000000000000000e-01
-5.000000000000000e-01 -5.000000000000000e-01 5.000000000000000e-01
-5.000000000000000e-01 -5.000000000000000e-01 -5.000000000000000e-01
-5.000000000000000e-01 5.000000000000000e-01 -5.000000000000000e-01
-5.000000000000000e-01 5.000000000000000e-01 5.000000000000000e-01
0.000000000000000e+00 -5.000000000000000e-01 0.000000000000000e+00
0.000000000000000e+00 0.000000000000000e+00 -5.000000000000000e-01
0.000000000000000e+00 5.000000000000000e-01 0.000000000000000e+00
0.000000000000000e+00 0.000000000000000e+00 5.000000000000000e-01
-5.000000000000000e-01 0.000000000000000e+00 0.000000000000000e+00
0.000000000000000e+00 0.000000000000000e+00 0.000000000000000e+00
-5.000000000000000e-01 0.000000000000000e+00 5.000000000000000e-01
-5.000000000000000e-01 0.000000000000000e+00 -5.000000000000000e-01
-5.000000000000000e-01 -5.000000000000000e-01 0.000000000000000e+00
-5.000000000000000e-01 5.000000000000000e-01 0.000000000000000e+00
1.000000000000000e+00 -5.000000000000000e-01 5.000000000000000e-01
1.000000000000000e+00 -5.000000000000000e-01 -5.000000000000000e-01
1.000000000000000e+00 5.000000000000000e-01 -5.000000000000000e-01
1.000000000000000e+00 5.000000000000000e-01 5.000000000000000e-01
5.000000000000000e-01 -5.000000000000000e-01 5.000000000000000e-01
5.000000000000000e-01 -5.000000000000000e-01 -5.000000000000000e-01
5.000000000000000e-01 5.000000000000000e-01 -5.000000000000000e-01
5.000000000000000e-01 5.000000000000000e-01 5.000000000000000e-01
1.000000000000000e+00 -5.000000000000000e-01 0.000000000000000e+00
1.000000000000000e+00 0.000000000000000e+00 -5.000000000000000e-01
1.000000000000000e+00 5.000000000000000e-01 0.000000000000000e+00
1.000000000000000e+00 0.000000000000000e+00 5.000000000000000e-01
5.000000000000000e-01 0.000000000000000e+00 0.000000000000000e+00
1.000000000000000e+00 0.000000000000000e+00 0.000000000000000e+00
5.000000000000000e-01 0.000000000000000e+00 5.000000000000000e-01
5.000000000000000e-01 0.000000000000000e+00 -5.000000000000000e-01
5.000000000000000e-01 -5.000000000000000e-01 0.000000000000000e+00
5.000000000000000e-01 5.000000000000000e-01 0.000000000000000e+00
2.000000000000000e+00 -5.000000000000000e-01 5.000000000000000e-01
2.000000000000000e+00 -5.000000000000000e-01 -5.000000000000000e-01
2.000000000000000e+00 5.000000000000000e-01 -5.000000000000000e-01
2.000000000000000e+00 5.000000000000000e-01 5.000000000000000e-01
1.500000000000000e+00 -5.000000000000000e-01 5.000000000000000e-01
1.500000000000000e+00 -5.000000000000000e-01 -5.000000000000000e-01
1.500000000000000e+00 5.000000000000000e-01 -5.000000000000000e-01
1.500000000000000e+00 5.000000000000000e-01 5.000000000000000e-01
2.000000000000000e+00 -5.000000000000000e-01 0.000000000000000e+00
2.000000000000000e+00 0.000000000000000e+00 -5.000000000000000e-01
2.000000000000000e+00 5.000000000000000e-01 0.000000000000000e+00
2.000000000000000e+00 0.000000000000000e+00 5.000000000000000e-01
1.500000000000000e+00 0.000000000000000e+00 0.000000000000000e+00
2.000000000000000e+00 0.000000000000000e+00 0.000000000000000e+00
1.500000000000000e+00 0.000000000000000e+00 5.000000000000000e-01
1.500000000000000e+00 0.000000000000000e+00 -5.000000000000000e-01
1.500000000000000e+00 -5.000000000000000e-01 0.000000000000000e+00
1.500000000000000e+00 5.000000000000000e-01 0.000000000000000e+00
3.000000000000000e+00 -5.000000000000000e-01 5.000000000000000e-01
3.000000000000000e+00 -5.000000000000000e-01 -5.000000000000000e-01
3.000000000000000e+00 5.000000000000000e-01 -5.000000000000000e-01
3.000000000000000e+00 5.000000000000000e-01 5.000000000000000e-01
2.500000000000000e+00 -5.000000000000000e-01 5.000000000000000e-01
2.500000000000000e+00 -5.000000000000000e-01 -5.000000000000000e-01
2.500000000000000e+00 5.000000000000000e-01 -5.000000000000000e-01
2.500000000000000e+00 5.000000000000000e-01 5.000000000000000e-01
3.000000000000000e+00 -5.000000000000000e-01 0.000000000000000e+00
3.000000000000000e+00 0.000000000000000e+00 -5.000000000000000e-01
3.000000000000000e+00 5.000000000000000e-01 0.000000000000000e+00
3.000000000000000e+00 0.000000000000000e+00 5.000000000000000e-01
2.500000000000000e+00 0.000000000000000e+00 0.000000000000000e+00
3.000000000000000e+00 0.000000000000000e+00 0.000000000000000e+00
2.500000000000000e+00 0.000000000000000e+00 5.000000000000000e-01
2.500000000000000e+00 0.000000000000000e+00 -5.000000000000000e-01
2.500000000000000e+00 -5.000000000000000e-01 0.000000000000000e+00
2.500000000000000e+00 5.000000000000000e-01 0.000000000000000e+00
4.000000000000000e+00 -5.000000000000000e-01 5.000000000000000e-01
4.000000000000000e+00 -5.000000000000000e-01 -5.000000000000000e-01
4.000000000000000e+00 5.000000000000000e-01 -5.000000000000000e-01
4.000000000000000e+00 5.000000000000000e-01 5.000000000000000e-01
3.500000000000000e+00 -5.000000000000000e-01 5.000000000000000e-01
3.500000000000000e+00 -5.000000000000000e-01 -5.000000000000000e-01
3.500000000000000e+00 5.000000000000000e-01 -5.000000000000000e-01
3.500000000000000e+00 5.000000000000000e-01 5.000000000000000e-01
4.000000000000000e+00 -5.000000000000000e-01 0.000000000000000e+00
4.000000000000000e+00 0.000000000000000e+00 -5.000000000000000e-01
4.000000000000000e+00 5.000000000000000e-01 0.000000000000000e+00
4.000000000000000e+00 0.000000000000000e+00 5.000000000000000e-01
3.500000000000000e+00 0.000000000000000e+00 0.000000000000000e+00
4.000000000000000e+00 0.000000000000000e+00 0.000000000000000e+00
3.500000000000000e+00 0.000000000000000e+00 5.000000000000000e-01
3.500000000000000e+00 0.000000000000000e+00 -5.000000000000000e-01
3.500000000000000e+00 -5.000000000000000e-01 0.000000000000000e+00
3.500000000000000e+00 5.000000000000000e-01 0.000000000000000e+00
5.000000000000000e+00 -5.000000000000000e-01 5.000000000000000e-01
5.000000000000000e+00 -5.000000000000000e-01 -5.000000000000000e-01
5.000000000000000e+00 5.000000000000000e-01 -5.000000000000000e-01
5.000000000000000e+00 5.000000000000000e-01 5.000000000000000e-01
4.500000000000000e+00 -5.000000000000000e-01 5.000000000000000e-01
4.500000000000000e+00 -5.000000000000000e-01 -5.000000000000000e-01
4.500000000000000e+00 5.000000000000000e-01 -5.000000000000000e-01
4.500000000000000e+00 5.000000000000000e-01 5.000000000000000e-01
5.000000000000000e+00 -5.000000000000000e-01 0.000000000000000e+00
5.000000000000000e+00 0.000000000000000e+00 -5.000000000000000e-01
5.000000000000000e+00 5.000000000000000e-01 0.000000000000000e+00
5.000000000000000e+00 0.000000000000000e+00 5.000000000000000e-01
4.500000000000000e+00 0.000000000000000e+00 0.000000000000000e+00
5.000000000000000e+00 0.000000000000000e+00 0.000000000000000e+00
4.500000000000000e+00 0.000000000000000e+00 5.000000000000000e-01
4.500000000000000e+00 0.000000000000000e+00 -5.000000000000000e-01
4.500000000000000e+00 -5.000000000000000e-01 0.000000000000000e+00
4.500000000000000e+00 5.000000000000000e-01 0.000000000000000e+00
-4.500000000000000e+00 3.000000000000000e-01 0.000000000000000e+00
-3.928571428570000e+00 3.000000000000000e-01 0.000000000000000e+00
-3.357142857140000e+00 3.000000000000000e-01 0.000000000000000e+00
-2.785714285710000e+00 3.000000000000000e-01 0.000000000000000e+00
-2.214285714290000e+00 3.000000000000000e-01 0.000000000000000e+00
-1.642857142860000e+00 3.000000000000000e-01 0.000000000000000e+00
-1.071428571430000e+00 3.000000000000000e-01 0.000000000000000e+00
-5.000000000000000e-01 3.000000000000000e-01 0.000000000000000e+00
7.142857142860000e-02 3.000000000000000e-01 0.000000000000000e+00
6.428571428570000e-01 3.000000000000000e-01 0.000000000000000e+00
1.214285714290000e+00 3.000000000000000e-01 0.000000000000000e+00
1.785714285710000e+00 3.000000000000000e-01 0.000000000000000e+00
2.357142857140000e+00 3.000000000000000e-01 0.000000000000000e+00
2.928571428570000e+00 3.000000000000000e-01 0.000000000000000e+00
3.500000000000000e+00 3.000000000000000e-01 0.000000000000000e+00
        </DataArray>
      </Points>

      <Cells>
        <DataArray type="Int32" Name="connectivity" format="ascii">
0 1 2 3 4 5 6 7 8 9 10 11 12 13 14 15 16 17 18 19 20 21 22 23 24 25 26 27 28 29 30 31 32 33 34 35 36 37 38 39 40 41 42 43 44 45 46 47 48 49 50 51 52 53 54 55 56 57 58 59 60 61 62 63 64 65 66 67 68 69 70 71 72 73 74 75 76 77 78 79 80 81 82 83 84 85 86 87 88 89 90 91 92 93 94 95 96 97 98 99 100 101 102 103 104 105 106 107 108 109 110 111 112 113 114 115 116 117 118 119 120 121 122 123 124 125 126 127 128 129 130 131 132 133 134 135 136 137 138 139 140 141 142 143 144 145 146 147 148 149 150 151 152 153 154 155 156 157 158 159 160 161 162 163 164 165 166 167 168 169 170 171 172 173 174 175 176 177 178 179 180 181 182 183 184 185 186 187 188 189 190 191 192 193 194 195 196 197 198 199 200 201 202 203 
        </DataArray>
        <DataArray type="Int32" Name="offsets" format="ascii">

        </DataArray>
        <DataArray type="UInt8" Name="types" format="ascii">

        </DataArray>
      </Cells>

  <PointData>
        <DataArray type="Float64" Name="displacement" NumberOfComponents="3" format="ascii">
0.000000000000000e+00 0.000000000000000e+00 0.000000000000000e+00
0.000000000000000e+00 0.000000000000000e+00 0.000000000000000e+00
0.000000000000000e+00 0.000000000000000e+00 0.000000000000000e+00
0.000000000000000e+00 0.000000000000000e+00 0.000000000000000e+00
-2.468961969549291e-02 -2.123357115020526e-03 2.433492218609068e-02
2.306144855012307e-02 1.437765755987152e-03 2.566444978564586e-02
2.327850858044050e-02 1.496470120928708e-03 2.934546852586169e-02
-2.447798254879744e-02 -2.075144603903561e-03 2.787813211520499e-02
0.000000000000000e+00 0.000000000000000e+00 0.000000000000000e+00
0.000000000000000e+00 0.000000000000000e+00 0.000000000000000e+00
0.000000000000000e+00 0.000000000000000e+00 0.000000000000000e+00
0.000000000000000e+00 0.000000000000000e+00 0.000000000000000e+00
-1.293100307183811e-02 -9.924795730131581e-04 6.290935657219253e-03
1.232013088644211e-02 8.023468208294586e-04 6.776633375312435e-03
1.254103901650565e-02 7.688513739430125e-04 8.562762918617095e-03
-1.273905991914011e-02 -1.025826718153155e-03 8.127239339133367e-03
-7.882291846483645e-04 -2.874096633569524e-04 2.498646012659623e-02
2.317023263859754e-02 1.464590447497831e-03 2.743069247382013e-02
-5.971467617741909e-04 -5.253981627312751e-04 2.868667439246827e-02
-2.459155405047291e-02 -2.102285429477093e-03 2.618046574430623e-02
-2.340583127086667e-04 -7.795553458112693e-05 7.433638955692500e-03
0.000000000000000e+00 0.000000000000000e+00 0.000000000000000e+00
-6.985419158357880e-04 -3.997144860184188e-04 2.683028621529221e-02
-1.284480594684715e-02 -1.007941847167079e-03 7.176507512580907e-03
1.242079236646489e-02 7.867420136201321e-04 7.699990924849147e-03
-3.029099266564459e-04 -1.187108101857362e-04 6.535635471370445e-03
-1.290815378447622e-04 -3.155887206859282e-05 8.332394216008863e-03
-4.520311233479691e-02 -4.130991893930599e-03 9.008380246997003e-02
3.887634395795052e-02 2.531294796611985e-03 9.371422605527900e-02
3.887587454133708e-02 2.522014589520238e-03 1.004193866949276e-01
-4.521324837316196e-02 -4.144667421278722e-03 9.678730714404289e-02
-3.525691177499882e-02 -3.122905406475584e-03 5.273465819866492e-02
3.185898426782521e-02 2.045917319423256e-03 5.509215969072596e-02
3.194570408713900e-02 2.018313323909398e-03 6.030317051952672e-02
-3.515643285463702e-02 -3.155162462675116e-03 5.795050182247787e-02
-3.148478329186021e-03 -7.968809562059465e-04 9.189543150662395e-02
3.886984639959239e-02 2.526297437295559e-03 9.706302305057174e-02
-3.143717233427447e-03 -8.306462221058909e-04 9.863004538161975e-02
-4.521578328463742e-02 -4.138214737998591e-03 9.343719868052013e-02
-1.622285993684989e-03 -5.366663002207457e-04 5.652373518227957e-02
-3.168003029828074e-03 -8.129543415512950e-04 9.525857969049298e-02
-3.519651367896362e-02 -3.138158541319905e-03 5.533085251966256e-02
3.190975762556231e-02 2.032859693389446e-03 5.770779743458822e-02
-1.691587492101493e-03 -5.502726242862183e-04 5.391199635225913e-02
-1.586627369489889e-03 -5.194309103708997e-04 5.913703120162712e-02
-6.330896946393107e-02 -6.067510926799898e-03 1.870349182643858e-01
4.736378951747407e-02 3.244833697089892e-03 1.931920969631370e-01
4.702184444310308e-02 3.178714704663142e-03 2.025255074880039e-01
-6.365686374483286e-02 -6.137129466785393e-03 1.964046021145369e-01
-5.445146959200475e-02 -5.121372249112803e-03 1.352288214820443e-01
4.394411219917055e-02 2.925788605547922e-03 1.401412599579173e-01
4.376706272332213e-02 2.902486201307883e-03 1.482424694947292e-01
-5.462381821907859e-02 -5.150280232758469e-03 1.433145365098710e-01
-7.966066520536830e-03 -1.431540781381409e-03 1.901136476496870e-01
4.718985717994437e-02 3.212704749157478e-03 1.978814086472135e-01
-8.294848586258903e-03 -1.394427916451602e-03 1.994704842010921e-01
-6.348062308226436e-02 -6.100951596624098e-03 1.916949658859907e-01
-5.323904302323102e-03 -1.121873683866952e-03 1.417420056492449e-01
-8.137151515198981e-03 -1.415645744956572e-03 1.947902567581242e-01
-5.453686661894661e-02 -5.136244469347072e-03 1.392803313018492e-01
4.385790927311241e-02 2.913856919080350e-03 1.441820197438207e-01
-5.247640838883844e-03 -1.090583644839441e-03 1.376803708158695e-01
-5.412885679228491e-03 -1.154918939958090e-03 1.458080522361919e-01
-7.968597866818551e-02 -7.890399736733455e-03 3.065186812421642e-01
4.939033627279821e-02 3.629480267244187e-03 3.148489781575520e-01
4.866903880570556e-02 3.538286501578646e-03 3.263763436501736e-01
-8.040963824762341e-02 -7.985662157418680e-03 3.180792085911265e-01
-7.164769993641641e-02 -7.015282069682254e-03 2.444397859736323e-01
4.906781973390914e-02 3.460907447198635e-03 2.517621829349632e-01
4.853534932432259e-02 3.424168175025184e-03 2.622832646280580e-01
-7.217807031199384e-02 -7.057447411332947e-03 2.549409608755551e-01
-1.514725511758299e-02 -2.149623542114506e-03 3.106834325921415e-01
4.902886582080521e-02 3.584858094728450e-03 3.206338526408226e-01
-1.585469655929173e-02 -2.139683852885224e-03 3.222327529449796e-01
-8.004272804208928e-02 -7.936550113770775e-03 3.122761481349528e-01
-1.154620130898258e-02 -1.815351781393642e-03 2.533677275140946e-01
-1.549727072204319e-02 -2.147435878172278e-03 3.164574615251501e-01
-7.191506995530522e-02 -7.037217704381253e-03 2.497033562935936e-01
4.880281724895058e-02 3.441972663021881e-03 2.570083374539658e-01
-1.128421071130637e-02 -1.765544771312968e-03 2.480957422144573e-01
-1.180664075287579e-02 -1.868514944345705e-03 2.586460225920415e-01
-9.461456453131795e-02 -9.543330119589369e-03 4.412380056714120e-01
4.621230378177618e-02 3.742455551279477e-03 4.511417230091638e-01
4.513891061917259e-02 3.643809175703610e-03 4.644228217017780e-01
-9.568673472953750e-02 -9.646558694564029e-03 4.545325518469772e-01
-8.728879248223675e-02 -8.752601852127407e-03 3.723695398666716e-01
4.833042632857266e-02 3.708324914179184e-03 3.815722951752753e-01
4.743358394517658e-02 3.644061373021890e-03 3.940523377340805e-01
-8.818593531615024e-02 -8.822013312145650e-03 3.848403388268921e-01
-2.420230137714894e-02 -2.908282133249483e-03 4.461876940626605e-01
4.567619769192673e-02 3.693601552394368e-03 4.577903783295161e-01
-2.526589856281046e-02 -2.965292041722513e-03 4.594902560065994e-01
-9.514748760127918e-02 -9.594241000813773e-03 4.478758209070753e-01
-1.992275438316450e-02 -2.566730168526457e-03 3.832182841645980e-01
-2.472835833682203e-02 -2.938058094460233e-03 4.528381063964431e-01
-8.773945816587948e-02 -8.787868635023139e-03 3.786116664432207e-01
4.788207532360565e-02 3.675826045470545e-03 3.878038793640262e-01
-1.947458745418701e-02 -2.515314882615626e-03 3.769662185103598e-01
-2.036348768467975e-02 -2.620336223986566e-03 3.894771189394212e-01
-1.082317191837980e-01 -1.097627411651600e-02 5.853095066023357e-01
3.920562477892325e-02 3.635254694670298e-03 5.961644847499741e-01
3.783910202750526e-02 3.530802092429056e-03 6.107544696696889e-01
-1.095957822816642e-01 -1.108565563737389e-02 5.998998915820410e-01
-1.015540039002840e-01 -1.029193860699214e-02 5.124162301253796e-01
4.307668945542811e-02 3.712475626047131e-03 5.228643131229458e-01
4.185416918104440e-02 3.620385807400292e-03 5.368583941693889e-01
-1.027783685453095e-01 -1.038900018230429e-02 5.264111976241181e-01
-3.451358505190611e-02 -3.670079950289461e-03 5.907331857272707e-01
3.852304896061406e-02 3.583080878638181e-03 6.034582737880945e-01
-3.587515774255666e-02 -3.777890328683571e-03 6.053483431512479e-01
-1.089132086770227e-01 -1.103092536039681e-02 5.926043856835286e-01
-2.984725374245419e-02 -3.339029853291017e-03 5.246452843852674e-01
-3.519139853288328e-02 -3.724009648709742e-03 5.980388697709100e-01
-1.021667215363176e-01 -1.034058620662532e-02 5.194136072553871e-01
4.246511762950972e-02 3.666337071765551e-03 5.298597642332153e-01
-2.923614449153290e-02 -3.288711024592739e-03 5.176362519105157e-01
-3.045314033072711e-02 -3.389885791062058e-03 5.316601600920141e-01
-1.207093583886963e-01 -1.215067748147446e-02 7.342811942385958e-01
2.968436151921187e-02 3.347449757976703e-03 7.455795212855596e-01
2.809309289756518e-02 3.234613387233128e-03 7.610366496424219e-01
-1.222992862648247e-01 -1.226858229047070e-02 7.497336089115679e-01
-1.145810509336356e-01 -1.159552552885364e-02 6.594061550613274e-01
3.466644979951224e-02 3.513236613795046e-03 6.705285714755013e-01
3.318135428196239e-02 3.401228879655798e-03 6.856011347358377e-01
-1.160678196444424e-01 -1.171237355073011e-02 6.744837498559106e-01
-4.551178194128998e-02 -4.398915005322381e-03 7.399257521796093e-01
2.888899194839450e-02 3.290932451171313e-03 7.533044620304079e-01
-4.710440798581119e-02 -4.528300306696421e-03 7.554108099747401e-01
-1.215049237316342e-01 -1.220981609305201e-02 7.420093567995475e-01
-4.069851489965524e-02 -4.096076616218061e-03 6.725111152795554e-01
-4.630760405595260e-02 -4.463208545771057e-03 7.476656480747882e-01
-1.153239809731150e-01 -1.165383490662122e-02 6.669419877073822e-01
3.392368370441394e-02 3.457281767933501e-03 6.780662201270828e-01
-3.995645890535798e-02 -4.042717693400075e-03 6.649638571590296e-01
-4.143926511253185e-02 -4.149136730754765e-03 6.800630726946051e-01
-1.323582363310213e-01 -1.303478485308692e-02 8.851406272973045e-01
1.880485527306383e-02 2.910998484098963e-03 8.965590624250946e-01
1.705658421665235e-02 2.790259587477566e-03 9.124364206015271e-01
-1.341020341377660e-01 -1.316055397422910e-02 9.010311952201373e-01
-1.266011224155550e-01 -1.262856926456771e-02 8.096071884127950e-01
2.434255728527146e-02 3.146812919332348e-03 8.209877286799707e-01
2.265939659354720e-02 3.024021479577864e-03 8.367041317930795e-01
-1.282846670064549e-01 -1.275625663196417e-02 8.253331695726935e-01
-5.677338598194430e-02 -5.060107156532812e-03 8.908455835700094e-01
1.793067415633512e-02 2.850539866693226e-03 9.044959017385895e-01
-5.854299550270586e-02 -5.191953389447129e-03 9.067568116558363e-01
-1.332303979414803e-01 -1.309779302034869e-02 8.930862338983172e-01
-5.196938543773918e-02 -4.800546048306719e-03 8.231638724874561e-01
-5.765751463418438e-02 -5.125731679695223e-03 8.987986493442357e-01
-1.274421957892095e-01 -1.269227069088380e-02 8.174671462608173e-01
2.350096069217800e-02 3.085487380094087e-03 8.288474105357416e-01
-5.112941619319413e-02 -4.742177601459500e-03 8.152940225314401e-01
-5.281008604686404e-02 -4.858530563585365e-03 8.310379583107970e-01
-1.436830653270221e-01 -1.369195322545296e-02 1.036325509935424e+00
7.478422337897070e-03 2.334204211605805e-03 1.047742438930784e+00
5.731307813919659e-03 2.209046888424256e-03 1.063689382560921e+00
-1.454190105510647e-01 -1.381724834680718e-02 1.052265101293896e+00
-1.380317830192930e-01 -1.337217611095592e-02 9.607343422210829e-01
1.315453994849924e-02 2.643250992118998e-03 9.721539659830419e-01
1.138623073486759e-02 2.516730831383692e-03 9.880955147301408e-01
-1.397830145592450e-01 -1.350135100702553e-02 9.766767751810351e-01
-6.810273479815014e-02 -5.679160438843164e-03 1.042034378423140e+00
6.604515851035136e-03 2.271588492864683e-03 1.055715901547105e+00
-6.983902771007797e-02 -5.805229456759587e-03 1.057975483133389e+00
-1.445512149422213e-01 -1.375463334944602e-02 1.044295038786641e+00
-6.332851608214511e-02 -5.426341649089011e-03 9.744171859422404e-01
-6.897212868354019e-02 -5.742124062026321e-03 1.050004840038006e+00
-1.389070575513691e-01 -1.343665524354180e-02 9.687031146925384e-01
1.226997886736650e-02 2.580034537923364e-03 9.801262766407574e-01
-6.243459602933680e-02 -5.366026202863101e-03 9.664425985796989e-01
-6.422629883207544e-02 -5.486361284651940e-03 9.823937931054748e-01
-1.549824414910545e-01 -1.436966643943313e-02 1.187479740406980e+00
-3.837099001499616e-03 1.654502655740219e-03 1.198894272126655e+00
-5.539802220898490e-03 1.528605937236396e-03 1.214842447868741e+00
-1.566846315809075e-01 -1.449560282477464e-02 1.203426360586726e+00
-1.493350643668469e-01 -1.402595996292576e-02 1.111903929940704e+00
1.813643188471187e-03 1.998952829789792e-03 1.123319358055792e+00
1.004226508951045e-04 1.872443638399046e-03 1.139264015081547e+00
-1.510473857483019e-01 -1.415244718702869e-02 1.127849358475549e+00
-7.940967553192504e-02 -6.357465184696216e-03 1.193187136937734e+00
-4.688123127318519e-03 1.591543423460623e-03 1.206868419123403e+00
-8.111282510298878e-02 -6.483484583480607e-03 1.209133734036192e+00
-1.558332470507785e-01 -1.443264444138947e-02 1.195453040519012e+00
-7.461672251970067e-02 -6.076906907337777e-03 1.125584303556784e+00
-8.026122158773212e-02 -6.420458339992848e-03 1.201160467737312e+00
-1.501913162106975e-01 -1.408919886183597e-02 1.119876654794291e+00
9.569214099230949e-04 1.935703470272845e-03 1.131291662907528e+00
-7.376064932961712e-02 -6.013643671857605e-03 1.117611601147546e+00
-7.547281250849751e-02 -6.140156002223137e-03 1.133557031033198e+00
-1.923493182734772e-04 1.187246502808969e-03 7.164562481010784e-03
3.320407470948462e-01 -5.186039518213393e-02 1.030815601719098e-02
-1.972135921504357e-03 -4.412754134717531e-04 6.834324408630751e-02
3.357318533022055e-01 -9.141649979186606e-02 1.610607120407590e-02
-6.924299515328503e-03 -1.230998619191508e-03 1.739408137739435e-01
3.392209132521016e-01 -1.187441550683890e-01 2.038941236364319e-02
-1.510211568873835e-02 -2.090770479196087e-03 3.106209088435005e-01
3.422979804713567e-01 -1.360372239965887e-01 2.325785559135436e-02
-2.576719204079854e-02 -3.003962612139815e-03 4.670123576262628e-01
3.447142325574661e-01 -1.455394288857996e-01 2.495262377378607e-02
-3.796032290032374e-02 -3.904241897287965e-03 6.343149961871722e-01
3.463158491621203e-01 -1.495368953509819e-01 2.576078612976127e-02
-5.084817692870771e-02 -4.735846252188225e-03 8.062941487136158e-01
3.470819897483206e-01 -1.502687470470313e-01 2.600790280004034e-02
-6.391693018459224e-02 -5.466461945591317e-03 9.792594760447196e-01
        </DataArray>
        <DataArray type="Float64" Name="force_beam" NumberOfComponents="3" format="ascii">
0.000000000000000e+00 0.000000000000000e+00 0.000000000000000e+00
0.000000000000000e+00 0.000000000000000e+00 0.000000000000000e+00
0.000000000000000e+00 0.000000000000000e+00 0.000000000000000e+00
0.000000000000000e+00 0.000000000000000e+00 0.000000000000000e+00
0.000000000000000e+00 0.000000000000000e+00 0.000000000000000e+00
0.000000000000000e+00 0.000000000000000e+00 0.000000000000000e+00
0.000000000000000e+00 0.000000000000000e+00 0.000000000000000e+00
0.000000000000000e+00 0.000000000000000e+00 0.000000000000000e+00
0.000000000000000e+00 0.000000000000000e+00 0.000000000000000e+00
0.000000000000000e+00 0.000000000000000e+00 0.000000000000000e+00
0.000000000000000e+00 0.000000000000000e+00 0.000000000000000e+00
0.000000000000000e+00 0.000000000000000e+00 0.000000000000000e+00