<?xml version="1.0" ?> 
<!-- 
# vtk DataFile Version 3.0
-->
<VTKFile type="UnstructuredGrid" version="0.1" compressor="vtkZLibDataCompressor" byte_order="LittleEndian">
  <UnstructuredGrid>
    <FieldData>
      <DataArray type="Float64" Name="TIME" NumberOfTuples="1" format="ascii">
1.000000000000000e+00 
      </DataArray>
    </FieldData>

    <Piece NumberOfPoints="90" NumberOfCells="15" >
      <Points>
        <DataArray type="Float64" NumberOfComponents="3" format="ascii">
-4.500000000000000e+00 3.000000000000000e-01 0.000000000000000e+00
-4.399999999999999e+00 3.000000000000000e-01 0.000000000000000e+00
-4.300000000000000e+00 3.000000000000000e-01 0.000000000000000e+00
-4.200000000000000e+00 3.000000000000000e-01 0.000000000000000e+00
-4.100000000000001e+00 3.000000000000000e-01 0.000000000000000e+00
-4.000000000000000e+00 3.000000000000000e-01 0.000000000000000e+00
-4.000000000000000e+00 3.000000000000000e-01 0.000000000000000e+00
-3.871428571428000e+00 3.000000000000000e-01 0.000000000000000e+00
-3.742857142856000e+00 3.000000000000000e-01 0.000000000000000e+00
-3.614285714284000e+00 3.000000000000000e-01 0.000000000000000e+00
-3.485714285712000e+00 3.000000000000000e-01 0.000000000000000e+00
-3.357142857140000e+00 3.000000000000000e-01 0.000000000000000e+00
-3.357142857140000e+00 3.000000000000000e-01 0.000000000000000e+00
-3.285714285712000e+00 3.000000000000000e-01 0.000000000000000e+00
-3.214285714284001e+00 3.000000000000000e-01 0.000000000000000e+00
-3.142857142856000e+00 3.000000000000000e-01 0.000000000000000e+00
-3.071428571428000e+00 3.000000000000000e-01 0.000000000000000e+00
-3.000000000000000e+00 3.000000000000000e-01 0.000000000000000e+00
-3.000000000000000e+00 3.000000000000000e-01 0.000000000000000e+00
-2.842857142858000e+00 3.000000000000000e-01 0.000000000000000e+00
-2.685714285716000e+00 3.000000000000000e-01 0.000000000000000e+00
-2.528571428574000e+00 3.000000000000000e-01 0.000000000000000e+00
-2.371428571432000e+00 3.000000000000000e-01 0.000000000000000e+00
-2.214285714290000e+00 3.000000000000000e-01 0.000000000000000e+00
-2.214285714290000e+00 3.000000000000000e-01 0.000000000000000e+00
-2.171428571432000e+00 2.999999999999999e-01 0.000000000000000e+00
-2.128571428574000e+00 3.000000000000000e-01 0.000000000000000e+00
-2.085714285716000e+00 3.000000000000000e-01 0.000000000000000e+00
-2.042857142858000e+00 3.000000000000000e-01 0.000000000000000e+00
-2.000000000000000e+00 3.000000000000000e-01 0.000000000000000e+00
-2.000000000000000e+00 3.000000000000000e-01 0.000000000000000e+00
-1.814285714286000e+00 3.000000000000000e-01 0.000000000000000e+00
-1.628571428572000e+00 3.000000000000000e-01 0.000000000000000e+00
-1.442857142858000e+00 3.000000000000000e-01 0.000000000000000e+00
-1.257142857144000e+00 3.000000000000000e-01 0.000000000000000e+00
-1.071428571430000e+00 3.000000000000000e-01 0.000000000000000e+00
-1.071428571430000e+00 3.000000000000000e-01 0.000000000000000e+00
-1.057142857144000e+00 3.000000000000000e-01 0.000000000000000e+00
-1.042857142858000e+00 3.000000000000000e-01 0.000000000000000e+00
-1.028571428572000e+00 3.000000000000000e-01 0.000000000000000e+00
-1.014285714286000e+00 3.000000000000000e-01 0.000000000000000e+00
-1.000000000000000e+00 3.000000000000000e-01 0.000000000000000e+00
-1.000000000000000e+00 3.000000000000000e-01 0.000000000000000e+00
-7.999999999999999e-01 3.000000000000000e-01 0.000000000000000e+00
-5.999999999999999e-01 3.000000000000000e-01 0.000000000000000e+00
-4.000000000000000e-01 3.000000000000000e-01 0.000000000000000e+00
-1.999999999999999e-01 3.000000000000000e-01 0.000000000000000e+00
1.249000902703301e-16 3.000000000000000e-01 0.000000000000000e+00
-5.551115123125783e-17 3.000000000000000e-01 0.000000000000000e+00
1.428571428571995e-02 3.000000000000000e-01 0.000000000000000e+00
2.857142857143997e-02 3.000000000000000e-01 0.000000000000000e+00
4.285714285715997e-02 3.000000000000000e-01 0.000000000000000e+00
5.714285714287999e-02 3.000000000000000e-01 0.000000000000000e+00
7.142857142860000e-02 3.000000000000000e-01 0.000000000000000e+00
7.142857142860000e-02 3.000000000000000e-01 0.000000000000000e+00
2.571428571428799e-01 3.000000000000000e-01 0.000000000000000e+00
4.428571428571598e-01 3.000000000000000e-01 0.000000000000000e+00
6.285714285714400e-01 3.000000000000000e-01 0.000000000000000e+00
8.142857142857198e-01 3.000000000000000e-01 0.000000000000000e+00
9.999999999999999e-01 3.000000000000000e-01 0.000000000000000e+00
1.000000000000000e+00 3.000000000000000e-01 0.000000000000000e+00
1.042857142858000e+00 3.000000000000000e-01 0.000000000000000e+00
1.085714285716000e+00 3.000000000000000e-01 0.000000000000000e+00
1.128571428574000e+00 3.000000000000000e-01 0.000000000000000e+00
1.171428571432000e+00 2.999999999999999e-01 0.000000000000000e+00
1.214285714290000e+00 3.000000000000000e-01 0.000000000000000e+00
1.214285714290000e+00 3.000000000000000e-01 0.000000000000000e+00
1.371428571432000e+00 2.999999999999999e-01 0.000000000000000e+00
1.528571428574000e+00 3.000000000000000e-01 0.000000000000000e+00
1.685714285716000e+00 3.000000000000000e-01 0.000000000000000e+00
1.842857142858000e+00 3.000000000000000e-01 0.000000000000000e+00
1.999999999999999e+00 2.999999999999999e-01 0.000000000000000e+00
2.000000000000000e+00 3.000000000000000e-01 0.000000000000000e+00
2.071428571428000e+00 3.000000000000000e-01 0.000000000000000e+00
2.142857142856000e+00 3.000000000000000e-01 0.000000000000000e+00
2.214285714284000e+00 3.000000000000000e-01 0.000000000000000e+00
2.285714285712000e+00 2.999999999999999e-01 0.000000000000000e+00
2.357142857140000e+00 3.000000000000000e-01 0.000000000000000e+00
2.357142857140000e+00 3.000000000000000e-01 0.000000000000000e+00
2.485714285712000e+00 3.000000000000000e-01 0.000000000000000e+00
2.614285714284001e+00 3.000000000000000e-01 0.000000000000000e+00
2.742857142856000e+00 3.000000000000000e-01 0.000000000000000e+00
2.871428571428000e+00 3.000000000000000e-01 0.000000000000000e+00
3.000000000000000e+00 3.000000000000000e-01 0.000000000000000e+00
3.000000000000000e+00 3.000000000000000e-01 0.000000000000000e+00
3.100000000000000e+00 3.000000000000000e-01 0.000000000000000e+00
3.199999999999999e+00 2.999999999999999e-01 0.000000000000000e+00
3.300000000000000e+00 3.000000000000000e-01 0.000000000000000e+00
3.400000000000000e+00 3.000000000000000e-01 0.000000000000000e+00
3.500000000000000e+00 3.000000000000000e-01 0.000000000000000e+00
        </DataArray>
      </Points>

      <Cells>
        <DataArray type="Int32" Name="connectivity" format="ascii">
0 1 2 3 4 5 6 7 8 9 10 11 12 13 14 15 16 17 18 19 20 21 22 23 24 25 26 27 28 29 30 31 32 33 34 35 36 37 38 39 40 41 42 43 44 45 46 47 48 49 50 51 52 53 54 55 56 57 58 59 60 61 62 63 64 65 66 67 68 69 70 71 72 73 74 75 76 77 78 79 80 81 82 83 84 85 86 87 88 89 
        </DataArray>
        <DataArray type="Int32" Name="offsets" format="ascii">
6 12 18 24 30 36 42 48 54 60 66 72 78 84 90 
        </DataArray>
        <DataArray type="UInt8" Name="types" format="ascii">
4 4 4 4 4 4 4 4 4 4 4 4 4 4 4 
        </DataArray>
      </Cells>

  <PointData>
        <DataArray type="Float64" Name="displacement" NumberOfComponents="3" format="ascii">
-1.015521885515902e-03 -7.205781866748140e-05 1.411010515934340e-02
-1.279629735493337e-03 -9.956415861844814e-05 2.126368916207153e-02
-1.578399401303443e-03 -1.330155880858164e-04 2.892438597232463e-02
-1.921194773824020e-03 -1.732816427255646e-04 3.713571767822900e-02
-2.317379743929315e-03 -2.212318581933936e-04 4.594120636791089e-02
-2.776318202498906e-03 -2.777357701451155e-04 5.538437412949652e-02
-2.776318202498906e-03 -2.777357701451155e-04 5.538437412949652e-02
-3.473660727803640e-03 -3.643517231500248e-04 6.853262902094087e-02
-4.310119377117783e-03 -4.683929359693972e-04 8.289945143420716e-02
-5.305595831048393e-03 -5.917074887576423e-04 9.857734166738416e-02
-6.479991770207416e-03 -7.361434616696694e-04 1.156588000185607e-01
-7.853208875204132e-03 -9.035489348602210e-04 1.342363267858257e-01
-7.853208875204132e-03 -9.035489348602210e-04 1.342363267858257e-01
-8.693792832497937e-03 -1.005679579431984e-03 1.451161792560669e-01
-9.573008988007725e-03 -1.112643051417450e-03 1.562505653962472e-01
-1.049248973623529e-02 -1.224473741631704e-03 1.676423856468252e-01
-1.145386747168065e-02 -1.341206040889664e-03 1.792945404482601e-01
-1.245877458884426e-02 -1.462874340006359e-03 1.912099302410108e-01
-1.245877458884515e-02 -1.462874340006359e-03 1.912099302410108e-01
-1.483083811035701e-02 -1.748088795502867e-03 2.183646683251463e-01
-1.743886636541125e-02 -2.057726135258342e-03 2.468383857890848e-01
-2.030024109064721e-02 -2.392152552671112e-03 2.766619665228336e-01
-2.343234402270600e-02 -2.751734241139003e-03 3.078662944163996e-01
-2.685255689822963e-02 -3.136837394060177e-03 3.404822533597898e-01
-2.685255689822963e-02 -3.136837394060177e-03 3.404822533597898e-01
-2.783341317717181e-02 -3.246129712640489e-03 3.496060781520088e-01
-2.882872913187740e-02 -3.356920081611925e-03 3.587963505114124e-01
-2.983858506062198e-02 -3.469203488693895e-03 3.680529603114273e-01
-3.086306126168070e-02 -3.582974921606030e-03 3.773757974254801e-01
-3.190223803333092e-02 -3.698229368067962e-03 3.867647517269977e-01
-3.190223803333092e-02 -3.698229368067962e-03 3.867647517269976e-01
-3.657716951859991e-02 -4.214680073299337e-03 4.282115546543731e-01
-4.153618677524795e-02 -4.758476506808218e-03 4.708888624628227e-01
-4.678582370372419e-02 -5.329210817481722e-03 5.147877141122911e-01
-5.233261420447932e-02 -5.926475154207078e-03 5.598991485627232e-01
-5.818309217796402e-02 -6.549861665871182e-03 6.062142047740628e-01
-5.818309217796402e-02 -6.549861665871182e-03 6.062142047740628e-01
-5.864561421906234e-02 -6.598874651284614e-03 6.098253992539966e-01
-5.910940954189625e-02 -6.648019247147752e-03 6.134414531740054e-01
-5.957447571734242e-02 -6.697295062612296e-03 6.170623522727346e-01
-6.004081031627595e-02 -6.746701706830116e-03 6.206880822888302e-01
-6.050841090957437e-02 -6.796238788953135e-03 6.243186289609381e-01
-6.050841090957437e-02 -6.796238788953135e-03 6.243186289609381e-01
-6.718638831457990e-02 -7.503235043701650e-03 6.756440448923261e-01
-7.410535899120230e-02 -8.234648034138314e-03 7.278715970206679e-01
-8.125865742390437e-02 -8.989405272803896e-03 7.809621521899999e-01
-8.863961809714932e-02 -9.766434272239277e-03 8.348765772443586e-01
-9.624157549539983e-02 -1.056466254498523e-02 8.895757390277803e-01
-9.624157549539983e-02 -1.056466254498528e-02 8.895757390277802e-01
-9.679285284828135e-02 -1.062246171036979e-02 8.935118162552945e-01
-9.734522129861806e-02 -1.068036317258891e-02 8.974516833213172e-01
-9.789867841728621e-02 -1.073836654079469e-02 9.013953259644945e-01
-9.845322177516204e-02 -1.079647142413881e-02 9.053427299234718e-01
-9.900884894312188e-02 -1.085467743177293e-02 9.092938809368949e-01
-9.900884894312188e-02 -1.085467743177293e-02 9.092938809368949e-01
-1.063023251638026e-01 -1.161972392001254e-02 9.609009145272095e-01
-1.137177888040494e-01 -1.239960284782399e-02 1.012925929658238e+00
-1.212483545996222e-01 -1.319342455020878e-02 1.065342569557636e+00
-1.288871372862809e-01 -1.400029936216846e-02 1.118124477453056e+00
-1.366272515997856e-01 -1.481933761870446e-02 1.171245296572154e+00
-1.366272515997856e-01 -1.481933761870446e-02 1.171245296572154e+00
-1.384270950423427e-01 -1.500997985288766e-02 1.183549293306122e+00
-1.402318835564934e-01 -1.520121153233961e-02 1.195869611040525e+00
-1.420415325258815e-01 -1.539302172353524e-02 1.208205925864185e+00
-1.438559573341507e-01 -1.558539949294924e-02 1.220557913865928e+00
-1.456750733649448e-01 -1.577833390705641e-02 1.232925251134578e+00
-1.456750733649448e-01 -1.577833390705641e-02 1.232925251134578e+00
-1.523695477310574e-01 -1.648994221935551e-02 1.278351012277836e+00
-1.590948406059201e-01 -1.720763505328954e-02 1.323875694656081e+00
-1.658495244564637e-01 -1.793101426575722e-02 1.369494339937379e+00
-1.726321717496166e-01 -1.865968171365751e-02 1.415201989789793e+00
-1.794413549523091e-01 -1.939323925388925e-02 1.460993685881388e+00
-1.794413549523091e-01 -1.939323925388931e-02 1.460993685881388e+00
-1.825448243181320e-01 -1.972818337180715e-02 1.481834535979876e+00
-1.856533472992026e-01 -2.006401818705833e-02 1.502691260896545e+00
-1.887667898296810e-01 -2.040070630829233e-02 1.523563394972876e+00
-1.918850178437257e-01 -2.073821034415846e-02 1.544450472550345e+00
-1.950078972754965e-01 -2.107649290330632e-02 1.565352027970433e+00
-1.950078972754965e-01 -2.107649290330632e-02 1.565352027970433e+00
-2.006302726983247e-01 -2.168676638169464e-02 1.602976617406592e+00
-2.062480531827471e-01 -2.229837042692251e-02 1.640583302755707e+00
-2.118630864937923e-01 -2.291124098193459e-02 1.678178110838340e+00
-2.174772203964892e-01 -2.352531398967533e-02 1.715767068475059e+00
-2.230923026558664e-01 -2.414052539308953e-02 1.753356202486426e+00
-2.230923026558664e-01 -2.414052539308953e-02 1.753356202486426e+00
-2.274614273515683e-01 -2.461976918439429e-02 1.782596175591278e+00
-2.318331129156896e-01 -2.509963274491778e-02 1.811842736910866e+00
-2.362082287356180e-01 -2.558008593533234e-02 1.841098722109735e+00
-2.405876441987402e-01 -2.606109861631001e-02 1.870366966852432e+00
-2.449722286924425e-01 -2.654264064852291e-02 1.899650306803500e+00
        </DataArray>
        <DataArray type="Float64" Name="lambda" NumberOfComponents="3" format="ascii">
-7.072698942741870e-04 1.492849709610098e-05 -9.922662895971404e-04
-5.330770250306921e-04 8.561482749389241e-06 -4.534986287384185e-04
-3.778209025634550e-04 3.313102057665935e-06 -1.033474140910617e-05
-2.415015268724759e-04 -8.166449790689304e-07 3.372253723907961e-04
-1.241188979577547e-04 -3.827758360815354e-06 5.891817126612883e-04
-2.567301581929136e-05 -5.720238087573340e-06 7.455342794023707e-04
-2.567301581929136e-05 -5.720238087573340e-06 7.455342794023707e-04
7.307483738174371e-05 -6.509719712605100e-06 8.060799939037308e-04
1.405190887686865e-04 -5.450031418149741e-06 7.085868174673150e-04
1.766597383415370e-04 -2.541173204207262e-06 4.530547500931228e-04
1.814967861002952e-04 2.216854929222338e-06 3.948379178115436e-05
1.550302320449611e-04 8.824052982139059e-06 -5.321260574685904e-04
1.550302320449611e-04 8.824052982139059e-06 -5.321260574685904e-04
1.317184770615577e-04 6.168923356008097e-06 -2.986544347239613e-04
1.115171423385000e-04 3.834484755756765e-06 -9.325149278277989e-05
9.442622787578814e-05 1.820737181385065e-06 8.408276835495374e-05
8.044573367342199e-05 1.276806328929960e-07 2.333483486892397e-04
6.957565973140159e-05 -1.244684889719443e-06 3.545452482200780e-04
6.957565973140159e-05 -1.244684889719442e-06 3.545452482200779e-04
5.661017637535986e-05 -3.135056628373342e-06 5.223766707600406e-04
5.869912707946817e-05 -3.473283801761927e-06 5.543556782106249e-04
7.584251184372650e-05 -2.259366409885197e-06 4.504822705718307e-04
1.080403306681349e-04 5.066955472568486e-07 2.107564478436581e-04
1.552925835526933e-04 4.824902069664210e-06 -1.648217899738930e-04
1.552925835526933e-04 4.824902069664210e-06 -1.648217899738930e-04
1.349487513424361e-04 3.894164724086866e-06 -8.733713121186598e-05
1.160422210587992e-04 3.030562968470886e-06 -1.536021725852636e-05
9.857299270178271e-05 2.234096802816270e-06 5.110895188612592e-05
8.254106627138655e-05 1.504766227123018e-06 1.120703762220909e-04
6.794644176761080e-05 8.425712413911303e-07 1.675240557493685e-04
6.794644176761078e-05 8.425712413911297e-07 1.675240557493686e-04
2.131189118179825e-05 -1.251151323861994e-06 3.441782825756047e-04
1.666676772472327e-06 -2.084216699894918e-06 4.174093013320558e-04
9.010798539632974e-06 -1.656624886707645e-06 3.872171120187219e-04
4.334425648328021e-05 3.162411569982747e-08 2.536017146356029e-04
1.046670506034140e-04 2.980530307327496e-06 1.656310918269917e-05
1.046670506034140e-04 2.980530307327496e-06 1.656310918269917e-05
9.908171309034131e-05 2.771413857210104e-06 3.189050427916320e-05
9.362085503141087e-05 2.567405317057924e-06 4.685453102454277e-05
8.828447642662269e-05 2.368504686870959e-06 6.145518941883789e-05
8.307257727597673e-05 2.174711966649208e-06 7.569247946204855e-05
7.798515757947301e-05 1.986027156392671e-06 8.956640115417475e-05
7.798515757947301e-05 1.986027156392671e-06 8.956640115417475e-05
1.983162451427545e-05 -1.192296408192747e-07 2.456476279776637e-04
-1.392393554001914e-05 -1.223336084889324e-06 3.305086579914483e-04
-2.328152258341077e-05 -1.326292175817477e-06 3.441494911955286e-04
-8.241136615899428e-06 -4.280979136037319e-07 2.865701275899042e-04
3.119722236251490e-05 1.471246701751910e-06 1.577705671745756e-04
3.119722236251486e-05 1.471246701751908e-06 1.577705671745757e-04
3.494784390986114e-05 1.645223499014955e-06 1.458453359404515e-04
3.882294491134480e-05 1.824308206243015e-06 1.335567363552571e-04
4.282252536696581e-05 2.008500823436089e-06 1.209047684189926e-04
4.694658527672417e-05 2.197801350594176e-06 1.078894321316578e-04
5.119512464061989e-05 2.392209787717278e-06 9.451072749325275e-05
5.119512464061989e-05 2.392209787717278e-06 9.451072749325275e-05
9.606281635360049e-06 5.184707237306027e-07 2.070915722443095e-04
-1.826289781444812e-05 -6.419290048769018e-07 2.786345297498514e-04
-3.241241370880463e-05 -1.088989398105237e-06 3.091396000098785e-04
-3.284226604770947e-05 -8.227104559544008e-07 2.986067830243907e-04
-1.955245483116264e-05 1.569078215756055e-07 2.470360787933880e-04
-1.955245483116261e-05 1.569078215756074e-07 2.470360787933879e-04
-1.453722073178757e-05 4.842762054450918e-07 2.293072814030614e-04
-8.791353661974592e-06 8.496330746321486e-07 2.093930343960223e-04
-2.314853621723683e-06 1.252978429136778e-06 1.872933377722706e-04
4.892279388965177e-06 1.694312268958980e-06 1.630081915318063e-04
1.283004537009198e-05 2.173634594098754e-06 1.365375956746294e-04
1.283004537009198e-05 2.173634594098754e-06 1.365375956746294e-04
-9.651124192215527e-06 7.903970977243066e-07 2.021704406635260e-04
-2.613848461360498e-05 -1.677414439489062e-07 2.485543872584106e-04
-3.663203589407636e-05 -7.007810309208836e-07 2.756894354592832e-04
-4.113177803362972e-05 -8.087216631916265e-07 2.835755852661440e-04
-3.963771103226501e-05 -4.915633407611347e-07 2.722128366789927e-04
-3.963771103226499e-05 -4.915633407611316e-07 2.722128366789926e-04
-3.697716515862225e-05 -2.068718868634013e-07 2.606846787612270e-04
-3.307822896661430e-05 1.656499295754595e-07 2.451794757207518e-04
-2.794090245624116e-05 6.260021085554510e-07 2.256972275575672e-04
-2.156518562750283e-05 1.174184650076573e-06 2.022379342716731e-04
-1.395107848039930e-05 1.810197554138824e-06 1.748015958630694e-04
-1.395107848039930e-05 1.810197554138824e-06 1.748015958630694e-04
-2.490346479206475e-05 9.464102313576073e-07 2.045151442071064e-04
-3.350410125869066e-05 2.935305552307045e-07 2.275863927120662e-04
-3.975298788027701e-05 -1.484414742418840e-07 2.440153413779485e-04
-4.365012465682382e-05 -3.795058570601581e-07 2.538019902047536e-04
-4.519551158833109e-05 -3.996625932241179e-07 2.569463391924815e-04
-4.519551158833109e-05 -3.996625932241179e-07 2.569463391924815e-04
-4.477157807429592e-05 -2.695273607026076e-07 2.547997366645806e-04
-4.292498107376800e-05 -1.180602094690524e-08 2.486349527525821e-04
-3.965572058674731e-05 3.735014260429894e-07 2.384519874564862e-04
-3.496379661323386e-05 8.863949802670759e-07 2.242508407762929e-04
-2.884920915322765e-05 1.526874641725355e-06 2.060315127120021e-04
        </DataArray>
        <DataArray type="Float64" Name="uid_0_pair_beam_id" format="ascii">
1.000000000000000e+01
1.000000000000000e+01
1.000000000000000e+01
1.000000000000000e+01
1.000000000000000e+01
1.000000000000000e+01
1.000000000000000e+01
1.000000000000000e+01
1.000000000000000e+01
1.000000000000000e+01
1.000000000000000e+01
1.000000000000000e+01
1.100000000000000e+01
1.100000000000000e+01
1.100000000000000e+01
1.100000000000000e+01
1.100000000000000e+01
1.100000000000000e+01
1.100000000000000e+01
1.100000000000000e+01
1.100000000000000e+01
1.100000000000000e+01
1.100000000000000e+01
1.100000000000000e+01
1.200000000000000e+01
1.200000000000000e+01
1.200000000000000e+01
1.200000000000000e+01
1.200000000000000e+01
1.200000000000000e+01
1.200000000000000e+01
1.200000000000000e+01
1.200000000000000e+01
1.200000000000000e+01
1.200000000000000e+01
1.200000000000000e+01
1.300000000000000e+01
1.300000000000000e+01
1.300000000000000e+01
1.300000000000000e+01
1.300000000000000e+01
1.300000000000000e+01
1.300000000000000e+01
1.300000000000000e+01
1.300000000000000e+01
1.300000000000000e+01
1.300000000000000e+01
1.300000000000000e+01
1.300000000000000e+01
1.300000000000000e+01
1.300000000000000e+01
1.300000000000000e+01
1.300000000000000e+01
1.300000000000000e+01
1.400000000000000e+01
1.400000000000000e+01
1.400000000000000e+01
1.400000000000000e+01
1.400000000000000e+01
1.400000000000000e+01
1.400000000000000e+01
1.400000000000000e+01
1.400000000000000e+01
1.400000000000000e+01
1.400000000000000e+01
1.400000000000000e+01
1.500000000000000e+01
1.500000000000000e+01
1.500000000000000e+01
1.500000000000000e+01
1.500000000000000e+01
1.500000000000000e+01
1.500000000000000e+01
1.500000000000000e+01
1.500000000000000e+01
1.500000000000000e+01
1.500000000000000e+01
1.500000000000000e+01
1.600000000000000e+01
1.600000000000000e+01
1.600000000000000e+01
1.600000000000000e+01
1.600000000000000e+01
1.600000000000000e+01
1.600000000000000e+01
1.600000000000000e+01
1.600000000000000e+01
1.600000000000000e+01
1.600000000000000e+01
1.600000000000000e+01
        </DataArray>
        <DataArray type="Float64" Name="uid_1_pair_solid_id" format="ascii">
0.000000000000000e+00
0.000000000000000e+00
0.000000000000000e+00
0.000000000000000e+00
0.000000000000000e+00
0.000000000000000e+00
1.000000000000000e+00
1.000000000000000e+00
1.000000000000000e+00
1.000000000000000e+00
1.000000000000000e+00
1.000000000000000e+00
1.000000000000000e+00
1.000000000000000e+00
1.000000000000000e+00
1.000000000000000e+00
1.000000000000000e+00
1.000000000000000e+00
2.000000000000000e+00
2.000000000000000e+00
2.000000000000000e+00
2.000000000000000e+00
2.000000000000000e+00
2.000000000000000e+00
2.000000000000000e+00
2.000000000000000e+00
2.000000000000000e+00
2.000000000000000e+00
2.000000000000000e+00
2.000000000000000e+00
3.000000000000000e+00
3.000000000000000e+00
3.000000000000000e+00
3.000000000000000e+00
3.000000000000000e+00
3.000000000000000e+00
3.000000000000000e+00
3.000000000000000e+00
3.000000000000000e+00
3.000000000000000e+00
3.000000000000000e+00
3.000000000000000e+00
4.000000000000000e+00
4.000000000000000e+00
4.000000000000000e+00
4.000000000000000e+00
4.000000000000000e+00
4.000000000000000e+00
5.000000000000000e+00
5.000000000000000e+00
5.000000000000000e+00
5.000000000000000e+00
5.000000000000000e+00
5.000000000000000e+00
5.000000000000000e+00
5.000000000000000e+00
5.000000000000000e+00
5.000000000000000e+00
5.000000000000000e+00
5.000000000000000e+00
6.000000000000000e+00
6.000000000000000e+00
6.000000000000000e+00
6.000000000000000e+00
6.000000000000000e+00
6.000000000000000e+00
6.000000000000000e+00
6.000000000000000e+00
6.000000000000000e+00
6.000000000000000e+00
6.000000000000000e+00
6.000000000000000e+00
7.000000000000000e+00
7.000000000000000e+00
7.000000000000000e+00
7.000000000000000e+00
7.000000000000000e+00
7.000000000000000e+00
7.000000000000000e+00
7.000000000000000e+00
7.000000000000000e+00
7.000000000000000e+00
7.000000000000000e+00
7.000000000000000e+00
8.000000000000000e+00
8.000000000000000e+00
8.000000000000000e+00
8.000000000000000e+00
8.000000000000000e+00
8.000000000000000e+00
        </DataArray>
  </PointData>
  <CellData>
        <DataArray type="Float64" Name="uid_0_pair_beam_id" format="ascii">
1.000000000000000e+01
1.000000000000000e+01
1.100000000000000e+01
1.100000000000000e+01
1.200000000000000e+01
1.200000000000000e+01
1.300000000000000e+01
1.300000000000000e+01
1.300000000000000e+01
1.400000000000000e+01
1.400000000000000e+01
1.500000000000000e+01
1.500000000000000e+01
1.600000000000000e+01
1.600000000000000e+01
        </DataArray>
        <DataArray type="Float64" Name="uid_1_pair_solid_id" format="ascii">
0.000000000000000e+00
1.000000000000000e+00
1.000000000000000e+00
2.000000000000000e+00
2.000000000000000e+00
3.000000000000000e+00
3.000000000000000e+00
4.000000000000000e+00
5.000000000000000e+00
5.000000000000000e+00
6.000000000000000e+00
6.000000000000000e+00
7.000000000000000e+00
7.000000000000000e+00
8.000000000000000e+00
        </DataArray>
      </CellData>

    </Piece>
  </UnstructuredGrid>
</VTKFile>
