<?xml version="1.0" ?> 
<!-- 
# vtk DataFile Version 3.0
-->
<VTKFile type="UnstructuredGrid" version="0.1" compressor="vtkZLibDataCompressor" byte_order="LittleEndian">
  <UnstructuredGrid>
    <FieldData>
      <DataArray type="Float64" Name="TIME" NumberOfTuples="1" format="ascii">
1.000000000000000e-08 
      </DataArray>
    </FieldData>

    <Piece NumberOfPoints="90" NumberOfCells="0" >
      <Points>
        <DataArray type="Float64" NumberOfComponents="3" format="ascii">
-4.483117378550786e+00 3.000000000000000e-01 0.000000000000000e+00
-4.415302346616566e+00 2.999999999999999e-01 0.000000000000000e+00
-4.309654796520799e+00 3.000000000000000e-01 0.000000000000000e+00
-4.190345203479201e+00 3.000000000000000e-01 0.000000000000000e+00
-4.084697653383434e+00 3.000000000000000e-01 0.000000000000000e+00
-4.016882621449212e+00 3.000000000000000e-01 0.000000000000000e+00
-3.978293772422345e+00 3.000000000000000e-01 0.000000000000000e+00
-3.891103017077958e+00 3.000000000000000e-01 0.000000000000000e+00
-3.755270452668511e+00 3.000000000000000e-01 0.000000000000000e+00
-3.601872404471488e+00 3.000000000000000e-01 0.000000000000000e+00
-3.466039840062042e+00 3.000000000000000e-01 0.000000000000000e+00
-3.378849084717655e+00 3.000000000000000e-01 0.000000000000000e+00
-3.345083841819231e+00 3.000000000000000e-01 0.000000000000000e+00
-3.296644533295174e+00 3.000000000000000e-01 0.000000000000000e+00
-3.221181997513087e+00 3.000000000000000e-01 0.000000000000000e+00
-3.135960859626913e+00 3.000000000000000e-01 0.000000000000000e+00
-3.060498323844826e+00 3.000000000000000e-01 0.000000000000000e+00
-3.012059015320769e+00 3.000000000000000e-01 0.000000000000000e+00
-2.973470166294240e+00 3.000000000000000e-01 0.000000000000000e+00
-2.866903687541044e+00 3.000000000000000e-01 0.000000000000000e+00
-2.700886108820030e+00 2.999999999999999e-01 0.000000000000000e+00
-2.513399605469969e+00 3.000000000000000e-01 0.000000000000000e+00
-2.347382026748955e+00 2.999999999999999e-01 0.000000000000000e+00
-2.240815547995759e+00 3.000000000000000e-01 0.000000000000000e+00
-2.207050305097336e+00 3.000000000000000e-01 0.000000000000000e+00
-2.177986719982088e+00 3.000000000000000e-01 0.000000000000000e+00
-2.132709198511568e+00 3.000000000000000e-01 0.000000000000000e+00
-2.081576515778432e+00 2.999999999999999e-01 0.000000000000000e+00
-2.036298994307912e+00 2.999999999999999e-01 0.000000000000000e+00
-2.007235409192664e+00 3.000000000000000e-01 0.000000000000000e+00
-1.968646560165797e+00 3.000000000000000e-01 0.000000000000000e+00
-1.842704358002436e+00 3.000000000000000e-01 0.000000000000000e+00
-1.646501764967742e+00 3.000000000000000e-01 0.000000000000000e+00
-1.424926806462258e+00 3.000000000000000e-01 0.000000000000000e+00
-1.228724213427564e+00 3.000000000000000e-01 0.000000000000000e+00
-1.102782011264202e+00 3.000000000000000e-01 0.000000000000000e+00
-1.069016768365779e+00 3.000000000000000e-01 0.000000000000000e+00
-1.059328906660696e+00 3.000000000000000e-01 0.000000000000000e+00
-1.044236399503856e+00 3.000000000000000e-01 0.000000000000000e+00
-1.027192171926144e+00 3.000000000000000e-01 0.000000000000000e+00
-1.012099664769304e+00 3.000000000000000e-01 0.000000000000000e+00
-1.002411803064221e+00 3.000000000000000e-01 0.000000000000000e+00
-9.662347571015759e-01 3.000000000000000e-01 0.000000000000000e+00
-8.306046932331322e-01 3.000000000000000e-01 0.000000000000000e+00
-6.193095930415983e-01 3.000000000000000e-01 0.000000000000000e+00
-3.806904069584014e-01 3.000000000000000e-01 0.000000000000000e+00
-1.693953067668676e-01 3.000000000000000e-01 0.000000000000000e+00
-3.376524289842391e-02 3.000000000000000e-01 0.000000000000000e+00
2.411803064174108e-03 3.000000000000000e-01 0.000000000000000e+00
1.209966476906670e-02 3.000000000000000e-01 0.000000000000000e+00
2.719217192561100e-02 3.000000000000000e-01 0.000000000000000e+00
4.423639950298895e-02 3.000000000000000e-01 0.000000000000000e+00
5.932890665953314e-02 2.999999999999999e-01 0.000000000000000e+00
6.901676836442583e-02 3.000000000000000e-01 0.000000000000000e+00
1.027820112628498e-01 3.000000000000000e-01 0.000000000000000e+00
2.287242134264008e-01 3.000000000000000e-01 0.000000000000000e+00
4.249268064613904e-01 3.000000000000000e-01 0.000000000000000e+00
6.465017649672092e-01 2.999999999999999e-01 0.000000000000000e+00
8.427043580021989e-01 2.999999999999999e-01 0.000000000000000e+00
9.686465601657499e-01 2.999999999999999e-01 0.000000000000000e+00
1.007235409192664e+00 3.000000000000000e-01 0.000000000000000e+00
1.036298994307912e+00 3.000000000000000e-01 0.000000000000000e+00
1.081576515778432e+00 3.000000000000000e-01 0.000000000000000e+00
1.132709198511568e+00 3.000000000000000e-01 0.000000000000000e+00
1.177986719982088e+00 3.000000000000000e-01 0.000000000000000e+00
1.207050305097336e+00 3.000000000000000e-01 0.000000000000000e+00
1.240815547995760e+00 3.000000000000000e-01 0.000000000000000e+00
1.347382026748956e+00 3.000000000000000e-01 0.000000000000000e+00
1.513399605469969e+00 3.000000000000000e-01 0.000000000000000e+00
1.700886108820030e+00 3.000000000000000e-01 0.000000000000000e+00
1.866903687541043e+00 2.999999999999999e-01 0.000000000000000e+00
1.973470166294240e+00 3.000000000000000e-01 0.000000000000000e+00
2.012059015320769e+00 3.000000000000000e-01 0.000000000000000e+00
2.060498323844826e+00 3.000000000000000e-01 0.000000000000000e+00
2.135960859626913e+00 3.000000000000000e-01 0.000000000000000e+00
2.221181997513087e+00 3.000000000000000e-01 0.000000000000000e+00
2.296644533295174e+00 3.000000000000000e-01 0.000000000000000e+00
2.345083841819231e+00 3.000000000000000e-01 0.000000000000000e+00
2.378849084717655e+00 3.000000000000000e-01 0.000000000000000e+00
2.466039840062042e+00 2.999999999999999e-01 0.000000000000000e+00
2.601872404471488e+00 3.000000000000000e-01 0.000000000000000e+00
2.755270452668511e+00 3.000000000000000e-01 0.000000000000000e+00
2.891103017077958e+00 3.000000000000000e-01 0.000000000000000e+00
2.978293772422345e+00 3.000000000000000e-01 0.000000000000000e+00
3.016882621449212e+00 3.000000000000000e-01 0.000000000000000e+00
3.084697653383434e+00 3.000000000000000e-01 0.000000000000000e+00
3.190345203479200e+00 3.000000000000000e-01 0.000000000000000e+00
3.309654796520799e+00 3.000000000000000e-01 0.000000000000000e+00
3.415302346616566e+00 2.999999999999999e-01 0.000000000000000e+00
3.483117378550788e+00 3.000000000000000e-01 0.000000000000000e+00
        </DataArray>
      </Points>

      <Cells>
        <DataArray type="Int32" Name="connectivity" format="ascii">
0 1 2 3 4 5 6 7 8 9 10 11 12 13 14 15 16 17 18 19 20 21 22 23 24 25 26 27 28 29 30 31 32 33 34 35 36 37 38 39 40 41 42 43 44 45 46 47 48 49 50 51 52 53 54 55 56 57 58 59 60 61 62 63 64 65 66 67 68 69 70 71 72 73 74 75 76 77 78 79 80 81 82 83 84 85 86 87 88 89 
        </DataArray>
        <DataArray type="Int32" Name="offsets" format="ascii">

        </DataArray>
        <DataArray type="UInt8" Name="types" format="ascii">

        </DataArray>
      </Cells>

  <PointData>
        <DataArray type="Float64" Name="displacement" NumberOfComponents="3" format="ascii">
-2.033406131243254e-04 1.002425978593291e-03 7.761279716488603e-03
-2.496446349518067e-04 3.659766252555596e-04 1.022784189713922e-02
-3.300691172851700e-04 -3.204280634004908e-04 1.430590110476177e-02
-4.362255743677323e-04 -7.229234031755349e-04 1.928607611214437e-02
-5.469946396745584e-04 -8.234996051378896e-04 2.405772384644823e-02
-6.277962515559565e-04 -7.939430689463678e-04 2.731280016420867e-02
-6.775140925840972e-04 -7.524921318000088e-04 2.923542740050894e-02
-8.007004055534672e-04 -6.130848343972040e-04 3.377564944049777e-02
-1.025800340153094e-03 -3.443412411043845e-04 4.142057277434964e-02
-1.335405221986274e-03 -1.229749447044237e-04 5.095514448171025e-02
-1.665394886946725e-03 -1.573191044973443e-04 6.025933890848309e-02
-1.907826302805393e-03 -3.624806240508649e-04 6.668592247801761e-02
-2.008449749584695e-03 -4.873483581760429e-04 6.927229491939677e-02
-2.157105367105228e-03 -6.521268919401635e-04 7.304156845374993e-02
-2.397844206647903e-03 -8.489771259397316e-04 7.903395656572611e-02
-2.683693051858782e-03 -9.946181126079812e-04 8.597963170416978e-02
-2.949762534533829e-03 -1.066690348345167e-03 9.229005858463857e-02
-3.127215586617993e-03 -1.089613571870984e-03 9.642089817070450e-02
-3.272420550782140e-03 -1.096910540330509e-03 9.975698167405021e-02
-3.691697384290649e-03 -1.078056479814127e-03 1.091806723202302e-01
-4.401188697352953e-03 -9.886451496640691e-04 1.244889249471438e-01
-5.291023960936503e-03 -9.168242952585781e-04 1.427184237180782e-01
-6.163539963710107e-03 -9.961164861695404e-04 1.597171908927919e-01
-6.768153300908963e-03 -1.169054974433259e-03 1.710627625514916e-01
-6.967249210879434e-03 -1.248812453211956e-03 1.747291633160419e-01
-7.140848432608315e-03 -1.316319324093262e-03 1.779058339072770e-01
-7.414742917258188e-03 -1.409147838113300e-03 1.828865338436701e-01
-7.729136477188092e-03 -1.497213058707758e-03 1.885578932629219e-01
-8.012057097466219e-03 -1.561649969210821e-03 1.936210123546645e-01
-8.195917785861706e-03 -1.596879517317407e-03 1.968913821157412e-01
-8.442774806232123e-03 -1.636866831100481e-03 2.012581533098640e-01
-9.270367235120203e-03 -1.721946777841765e-03 2.157046611239340e-01
-1.062763860432203e-02 -1.763982369595130e-03 2.388024432377788e-01
-1.226242615722839e-02 -1.784975852920367e-03 2.657495907038305e-01
-1.380276479550191e-02 -1.886188433467717e-03 2.903702820688844e-01
-1.483847936619664e-02 -2.038544424233180e-03 3.065481268758824e-01
-1.512248955990891e-02 -2.095019692863964e-03 3.109349297801071e-01
-1.520442387655940e-02 -2.111838748848571e-03 3.121970435258343e-01
-1.533237171911206e-02 -2.137256550705902e-03 3.141656112601619e-01
-1.547731010626419e-02 -2.164838747025555e-03 3.163921785775530e-01
-1.560604470285409e-02 -2.188294511147826e-03 3.183668112382783e-01
-1.568887344992875e-02 -2.202883001844569e-03 3.196358199657146e-01
-1.599951651352238e-02 -2.254242312000387e-03 3.243849225270603e-01
-1.718279052797611e-02 -2.407804077241782e-03 3.423323359632499e-01
-1.908390359191270e-02 -2.556265390580237e-03 3.707295832941838e-01
-2.131323823235154e-02 -2.662344081599322e-03 4.034136440042632e-01
-2.335808136852879e-02 -2.773096697702371e-03 4.328732797385714e-01
-2.470475657768226e-02 -2.883788894434081e-03 4.520284817164347e-01
-2.506838146169009e-02 -2.921248013809830e-03 4.571692021954480e-01
-2.516607002111428e-02 -2.931937917688698e-03 4.585480480089455e-01
-2.531851984767874e-02 -2.949171807618500e-03 4.606979730417747e-01
-2.549106839854060e-02 -2.969510263724939e-03 4.631286223392251e-01
-2.564419810445834e-02 -2.988321408764927e-03 4.652833231436504e-01
-2.574265959258733e-02 -3.000804433355098e-03 4.666675983483135e-01
-2.608664200367931e-02 -3.044056089489156e-03 4.714979315554491e-01
-2.737926604993918e-02 -3.184875625491079e-03 4.895819299507842e-01
-2.942212939588607e-02 -3.352845927981685e-03 5.179576664470356e-01
-3.176954045201297e-02 -3.496836656813107e-03 5.502826530306913e-01
-3.388163201680916e-02 -3.613460344411179e-03 5.791362427569881e-01
-3.525295896421243e-02 -3.695905887508066e-03 5.977634941227221e-01
-3.567546989881676e-02 -3.723700827312826e-03 6.034867191690766e-01
-3.599439417676575e-02 -3.745643264538245e-03 6.078019878243619e-01
-3.649243055086471e-02 -3.781776664490033e-03 6.145326713933723e-01
-3.705658837391379e-02 -3.825801955073205e-03 6.221452788977986e-01
-3.755763729304373e-02 -3.868000171192043e-03 6.288961668562379e-01
-3.787998641764778e-02 -3.896837464809455e-03 6.332344051052857e-01
-3.825506992989336e-02 -3.931133959091615e-03 6.382783474058003e-01
-3.944134534860044e-02 -4.031141450484332e-03 6.542137106956089e-01
-4.129662974856640e-02 -4.165511517302711e-03 6.790861845837447e-01
-4.340197177398908e-02 -4.295198720402016e-03 7.072413078133790e-01
-4.527478458163015e-02 -4.399827155267377e-03 7.322282399153015e-01
-4.648098737329875e-02 -4.466022528446634e-03 7.482937263490307e-01
-4.691852216880421e-02 -4.490339470286930e-03 7.541161405707553e-01
-4.746830275296077e-02 -4.521374396406819e-03 7.614284615695186e-01
-4.832600940887133e-02 -4.571320321327510e-03 7.728280922259210e-01
-4.929637261643283e-02 -4.630940271535378e-03 7.857132364163542e-01
-5.015712149361073e-02 -4.687455921239592e-03 7.971326966830982e-01
-5.071036066219703e-02 -4.725959714950712e-03 8.044675612036852e-01
-5.109624280804237e-02 -4.753577149025134e-03 8.095819887731580e-01
-5.209206700096747e-02 -4.821416471616213e-03 8.227846715413372e-01
-5.364197262671677e-02 -4.917727048854126e-03 8.433420748054187e-01
-5.539131279747433e-02 -5.015959205318610e-03 8.665472920509393e-01
-5.694061011410056e-02 -5.096812737293954e-03 8.870910592276147e-01
-5.793574274376523e-02 -5.147079539235488e-03 9.002782396521406e-01
-5.837641574996733e-02 -5.169162075864764e-03 9.061150490317484e-01
-5.915130755659170e-02 -5.207992170539633e-03 9.163735790902865e-01
-6.035994292532054e-02 -5.269286588862998e-03 9.323590460962765e-01
-6.172753975257139e-02 -5.341186044563906e-03 9.504198879710820e-01
-6.294143604829561e-02 -5.408728343941571e-03 9.664222667027040e-01
-6.372230880061291e-02 -5.454661414442674e-03 9.767000230520917e-01
        </DataArray>
        <DataArray type="Float64" Name="force" NumberOfComponents="3" format="ascii">
0.000000000000000e+00 0.000000000000000e+00 0.000000000000000e+00
0.000000000000000e+00 0.000000000000000e+00 0.000000000000000e+00
0.000000000000000e+00 0.000000000000000e+00 0.000000000000000e+00
0.000000000000000e+00 0.000000000000000e+00 0.000000000000000e+00
0.000000000000000e+00 0.000000000000000e+00 0.000000000000000e+00
0.000000000000000e+00 0.000000000000000e+00 0.000000000000000e+00
0.000000000000000e+00 0.000000000000000e+00 0.000000000000000e+00
0.000000000000000e+00 0.000000000000000e+00 0.000000000000000e+00
0.000000000000000e+00 0.000000000000000e+00 0.000000000000000e+00
0.000000000000000e+00 0.000000000000000e+00 0.000000000000000e+00
0.000000000000000e+00 0.000000000000000e+00 0.000000000000000e+00
0.000000000000000e+00 0.000000000000000e+00 0.000000000000000e+00
0.000000000000000e+00 0.000000000000000e+00 0.000000000000000e+00
0.000000000000000e+00 0.000000000000000e+00 0.000000000000000e+00
0.000000000000000e+00 0.000000000000000e+00 0.000000000000000e+00
0.000000000000000e+00 0.000000000000000e+00 0.000000000000000e+00
0.000000000000000e+00 0.000000000000000e+00 0.000000000000000e+00
0.000000000000000e+00 0.000000000000000e+00 0.000000000000000e+00
0.000000000000000e+00 0.000000000000000e+00 0.000000000000000e+00
0.000000000000000e+00 0.000000000000000e+00 0.000000000000000e+00
0.000000000000000e+00 0.000000000000000e+00 0.000000000000000e+00
0.000000000000000e+00 0.000000000000000e+00 0.000000000000000e+00
0.000000000000000e+00 0.000000000000000e+00 0.000000000000000e+00
0.000000000000000e+00 0.000000000000000e+00 0.000000000000000e+00
0.000000000000000e+00 0.000000000000000e+00 0.000000000000000e+00
0.000000000000000e+00 0.000000000000000e+00 0.000000000000000e+00
0.000000000000000e+00 0.000000000000000e+00 0.000000000000000e+00
0.000000000000000e+00 0.000000000000000e+00 0.000000000000000e+00
0.000000000000000e+00 0.000000000000000e+00 0.000000000000000e+00
0.000000000000000e+00 0.000000000000000e+00 0.000000000000000e+00
0.000000000000000e+00 0.000000000000000e+00 0.000000000000000e+00
0.000000000000000e+00 0.000000000000000e+00 0.000000000000000e+00
0.000000000000000e+00 0.000000000000000e+00 0.000000000000000e+00
0.000000000000000e+00 0.000000000000000e+00 0.000000000000000e+00
0.000000000000000e+00 0.000000000000000e+00 0.000000000000000e+00
0.000000000000000e+00 0.000000000000000e+00 0.000000000000000e+00
0.000000000000000e+00 0.000000000000000e+00 0.000000000000000e+00
0.000000000000000e+00 0.000000000000000e+00 0.000000000000000e+00
0.000000000000000e+00 0.000000000000000e+00 0.000000000000000e+00
0.000000000000000e+00 0.000000000000000e+00 0.000000000000000e+00
0.000000000000000e+00 0.000000000000000e+00 0.000000000000000e+00
0.000000000000000e+00 0.000000000000000e+00 0.000000000000000e+00
0.000000000000000e+00 0.000000000000000e+00 0.000000000000000e+00
0.000000000000000e+00 0.000000000000000e+00 0.000000000000000e+00
0.000000000000000e+00 0.000000000000000e+00 0.000000000000000e+00
0.000000000000000e+00 0.000000000000000e+00 0.000000000000000e+00
0.000000000000000e+00 0.000000000000000e+00 0.000000000000000e+00
0.000000000000000e+00 0.000000000000000e+00 0.000000000000000e+00
0.000000000000000e+00 0.000000000000000e+00 0.000000000000000e+00
0.000000000000000e+00 0.000000000000000e+00 0.000000000000000e+00
0.000000000000000e+00 0.000000000000000e+00 0.000000000000000e+00
0.000000000000000e+00 0.000000000000000e+00 0.000000000000000e+00
0.000000000000000e+00 0.000000000000000e+00 0.000000000000000e+00
0.000000000000000e+00 0.000000000000000e+00 0.000000000000000e+00
0.000000000000000e+00 0.000000000000000e+00 0.000000000000000e+00
0.000000000000000e+00 0.000000000000000e+00 0.000000000000000e+00
0.000000000000000e+00 0.000000000000000e+00 0.000000000000000e+00
0.000000000000000e+00 0.000000000000000e+00 0.000000000000000e+00
0.000000000000000e+00 0.000000000000000e+00 0.000000000000000e+00
0.000000000000000e+00 0.000000000000000e+00 0.000000000000000e+00
0.000000000000000e+00 0.000000000000000e+00 0.000000000000000e+00
0.000000000000000e+00 0.000000000000000e+00 0.000000000000000e+00
0.000000000000000e+00 0.000000000000000e+00 0.000000000000000e+00
0.000000000000000e+00 0.000000000000000e+00 0.000000000000000e+00
0.000000000000000e+00 0.000000000000000e+00 0.000000000000000e+00
0.000000000000000e+00 0.000000000000000e+00 0.000000000000000e+00
0.000000000000000e+00 0.000000000000000e+00 0.000000000000000e+00
0.000000000000000e+00 0.000000000000000e+00 0.000000000000000e+00
0.000000000000000e+00 0.000000000000000e+00 0.000000000000000e+00
0.000000000000000e+00 0.000000000000000e+00 0.000000000000000e+00
0.000000000000000e+00 0.000000000000000e+00 0.000000000000000e+00
0.000000000000000e+00 0.000000000000000e+00 0.000000000000000e+00
0.000000000000000e+00 0.000000000000000e+00 0.000000000000000e+00
0.000000000000000e+00 0.000000000000000e+00 0.000000000000000e+00
0.000000000000000e+00 0.000000000000000e+00 0.000000000000000e+00
0.000000000000000e+00 0.000000000000000e+00 0.000000000000000e+00
0.000000000000000e+00 0.000000000000000e+00 0.000000000000000e+00
0.000000000000000e+00 0.000000000000000e+00 0.000000000000000e+00
0.000000000000000e+00 0.000000000000000e+00 0.000000000000000e+00
0.000000000000000e+00 0.000000000000000e+00 0.000000000000000e+00
0.000000000000000e+00 0.000000000000000e+00 0.000000000000000e+00
0.000000000000000e+00 0.000000000000000e+00 0.000000000000000e+00
0.000000000000000e+00 0.000000000000000e+00 0.000000000000000e+00
0.000000000000000e+00 0.000000000000000e+00 0.000000000000000e+00
0.000000000000000e+00 0.000000000000000e+00 0.000000000000000e+00
0.000000000000000e+00 0.000000000000000e+00 0.000000000000000e+00
0.000000000000000e+00 0.000000000000000e+00 0.000000000000000e+00
0.000000000000000e+00 0.000000000000000e+00 0.000000000000000e+00
0.000000000000000e+00 0.000000000000000e+00 0.000000000000000e+00
0.000000000000000e+00 0.000000000000000e+00 0.000000000000000e+00
        </DataArray>
        <DataArray type="Float64" Name="uid_0_pair_beam_id" format="ascii">
1.000000000000000e+01
1.000000000000000e+01
1.000000000000000e+01
1.000000000000000e+01
1.000000000000000e+01
1.000000000000000e+01
1.000000000000000e+01
1.000000000000000e+01
1.000000000000000e+01
1.000000000000000e+01
1.000000000000000e+01
1.000000000000000e+01
1.100000000000000e+01
1.100000000000000e+01
1.100000000000000e+01
1.100000000000000e+01
1.100000000000000e+01
1.100000000000000e+01
1.100000000000000e+01
1.100000000000000e+01
1.100000000000000e+01
1.100000000000000e+01
1.100000000000000e+01
1.100000000000000e+01
1.200000000000000e+01
1.200000000000000e+01
1.200000000000000e+01
1.200000000000000e+01
1.200000000000000e+01
1.200000000000000e+01
1.200000000000000e+01
1.200000000000000e+01
1.200000000000000e+01
1.200000000000000e+01
1.200000000000000e+01
1.200000000000000e+01
1.300000000000000e+01
1.300000000000000e+01
1.300000000000000e+01
1.300000000000000e+01
1.300000000000000e+01
1.300000000000000e+01
1.300000000000000e+01
1.300000000000000e+01
1.300000000000000e+01
1.300000000000000e+01
1.300000000000000e+01
1.300000000000000e+01
1.300000000000000e+01
1.300000000000000e+01
1.300000000000000e+01
1.300000000000000e+01
1.300000000000000e+01
1.300000000000000e+01
1.400000000000000e+01
1.400000000000000e+01
1.400000000000000e+01
1.400000000000000e+01
1.400000000000000e+01
1.400000000000000e+01
1.400000000000000e+01
1.400000000000000e+01
1.400000000000000e+01
1.400000000000000e+01
1.400000000000000e+01
1.400000000000000e+01
1.500000000000000e+01
1.500000000000000e+01
1.500000000000000e+01
1.500000000000000e+01
1.500000000000000e+01
1.500000000000000e+01
1.500000000000000e+01
1.500000000000000e+01
1.500000000000000e+01
1.500000000000000e+01
1.500000000000000e+01
1.500000000000000e+01
1.600000000000000e+01
1.600000000000000e+01
1.600000000000000e+01
1.600000000000000e+01
1.600000000000000e+01
1.600000000000000e+01
1.600000000000000e+01
1.600000000000000e+01
1.600000000000000e+01
1.600000000000000e+01
1.600000000000000e+01
1.600000000000000e+01
        </DataArray>
        <DataArray type="Float64" Name="uid_1_pair_solid_id" format="ascii">
0.000000000000000e+00
0.000000000000000e+00
0.000000000000000e+00
0.000000000000000e+00
0.000000000000000e+00
0.000000000000000e+00
1.000000000000000e+00
1.000000000000000e+00
1.000000000000000e+00
1.000000000000000e+00
1.000000000000000e+00
1.000000000000000e+00
1.000000000000000e+00
1.000000000000000e+00
1.000000000000000e+00
1.000000000000000e+00
1.000000000000000e+00
1.000000000000000e+00
2.000000000000000e+00
2.000000000000000e+00
2.000000000000000e+00
2.000000000000000e+00
2.000000000000000e+00
2.000000000000000e+00
2.000000000000000e+00
2.000000000000000e+00
2.000000000000000e+00
2.000000000000000e+00
2.000000000000000e+00
2.000000000000000e+00
3.000000000000000e+00
3.000000000000000e+00
3.000000000000000e+00
3.000000000000000e+00
3.000000000000000e+00
3.000000000000000e+00
3.000000000000000e+00
3.000000000000000e+00
3.000000000000000e+00
3.000000000000000e+00
3.000000000000000e+00
3.000000000000000e+00
4.000000000000000e+00
4.000000000000000e+00
4.000000000000000e+00
4.000000000000000e+00
4.000000000000000e+00
4.000000000000000e+00
5.000000000000000e+00
5.000000000000000e+00
5.000000000000000e+00
5.000000000000000e+00
5.000000000000000e+00
5.000000000000000e+00
5.000000000000000e+00
5.000000000000000e+00
5.000000000000000e+00
5.000000000000000e+00
5.000000000000000e+00
5.000000000000000e+00
6.000000000000000e+00
6.000000000000000e+00
6.000000000000000e+00
6.000000000000000e+00
6.000000000000000e+00
6.000000000000000e+00
6.000000000000000e+00
6.000000000000000e+00
6.000000000000000e+00
6.000000000000000e+00
6.000000000000000e+00
6.000000000000000e+00
7.000000000000000e+00
7.000000000000000e+00
7.000000000000000e+00
7.000000000000000e+00
7.000000000000000e+00
7.000000000000000e+00
7.000000000000000e+00
7.000000000000000e+00
7.000000000000000e+00
7.000000000000000e+00
7.000000000000000e+00
7.000000000000000e+00
8.000000000000000e+00
8.000000000000000e+00
8.000000000000000e+00
8.000000000000000e+00
8.000000000000000e+00
8.000000000000000e+00
        </DataArray>
      </PointData>

    </Piece>
  </UnstructuredGrid>
</VTKFile>
