<?xml version="1.0" ?> 
<!-- 
# vtk DataFile Version 3.0
-->
<VTKFile type="UnstructuredGrid" version="0.1" compressor="vtkZLibDataCompressor" byte_order="LittleEndian">
  <UnstructuredGrid>
    <FieldData>
      <DataArray type="Float64" Name="TIME" NumberOfTuples="1" format="ascii">
1.000000000000000e+00 
      </DataArray>
    </FieldData>

    <Piece NumberOfPoints="30" NumberOfCells="0" >
      <Points>
        <DataArray type="Float64" NumberOfComponents="3" format="ascii">
-4.500000000000000e+00 3.000000000000000e-01 0.000000000000000e+00
-4.000000000000000e+00 3.000000000000000e-01 0.000000000000000e+00
-4.000000000000000e+00 3.000000000000000e-01 0.000000000000000e+00
-3.357142857140000e+00 3.000000000000000e-01 0.000000000000000e+00
-3.357142857140000e+00 3.000000000000000e-01 0.000000000000000e+00
-3.000000000000000e+00 3.000000000000000e-01 0.000000000000000e+00
-3.000000000000000e+00 3.000000000000000e-01 0.000000000000000e+00
-2.214285714290000e+00 3.000000000000000e-01 0.000000000000000e+00
-2.214285714290000e+00 3.000000000000000e-01 0.000000000000000e+00
-2.000000000000000e+00 3.000000000000000e-01 0.000000000000000e+00
-2.000000000000000e+00 3.000000000000000e-01 0.000000000000000e+00
-1.071428571430000e+00 3.000000000000000e-01 0.000000000000000e+00
-1.071428571430000e+00 3.000000000000000e-01 0.000000000000000e+00
-1.000000000000000e+00 3.000000000000000e-01 0.000000000000000e+00
-1.000000000000000e+00 3.000000000000000e-01 0.000000000000000e+00
4.163336342344337e-17 3.000000000000000e-01 0.000000000000000e+00
-5.551115123125783e-17 3.000000000000000e-01 0.000000000000000e+00
7.142857142860000e-02 3.000000000000000e-01 0.000000000000000e+00
7.142857142860000e-02 3.000000000000000e-01 0.000000000000000e+00
1.000000000000000e+00 3.000000000000000e-01 0.000000000000000e+00
1.000000000000000e+00 3.000000000000000e-01 0.000000000000000e+00
1.214285714290000e+00 3.000000000000000e-01 0.000000000000000e+00
1.214285714290000e+00 3.000000000000000e-01 0.000000000000000e+00
1.999999999999999e+00 3.000000000000000e-01 0.000000000000000e+00
2.000000000000000e+00 3.000000000000000e-01 0.000000000000000e+00
2.357142857140000e+00 3.000000000000000e-01 0.000000000000000e+00
2.357142857140000e+00 3.000000000000000e-01 0.000000000000000e+00
3.000000000000000e+00 3.000000000000000e-01 0.000000000000000e+00
3.000000000000000e+00 3.000000000000000e-01 0.000000000000000e+00
3.500000000000000e+00 3.000000000000000e-01 0.000000000000000e+00
        </DataArray>
      </Points>

      <Cells>
        <DataArray type="Int32" Name="connectivity" format="ascii">
0 1 2 3 4 5 6 7 8 9 10 11 12 13 14 15 16 17 18 19 20 21 22 23 24 25 26 27 28 29 
        </DataArray>
        <DataArray type="Int32" Name="offsets" format="ascii">

        </DataArray>
        <DataArray type="UInt8" Name="types" format="ascii">

        </DataArray>
      </Cells>

  <PointData>
        <DataArray type="Float64" Name="displacement" NumberOfComponents="3" format="ascii">
-1.015521885515902e-03 -7.205781866748140e-05 1.411010515934340e-02
-2.776318202498906e-03 -2.777357701451155e-04 5.538437412949652e-02
-2.776318202498906e-03 -2.777357701451155e-04 5.538437412949652e-02
-7.853208875204132e-03 -9.035489348602210e-04 1.342363267858257e-01
-7.853208875204132e-03 -9.035489348602210e-04 1.342363267858257e-01
-1.245877458884426e-02 -1.462874340006359e-03 1.912099302410108e-01
-1.245877458884515e-02 -1.462874340006359e-03 1.912099302410108e-01
-2.685255689822963e-02 -3.136837394060177e-03 3.404822533597898e-01
-2.685255689822963e-02 -3.136837394060177e-03 3.404822533597898e-01
-3.190223803333092e-02 -3.698229368067962e-03 3.867647517269977e-01
-3.190223803333092e-02 -3.698229368067962e-03 3.867647517269976e-01
-5.818309217796402e-02 -6.549861665871182e-03 6.062142047740628e-01
-5.818309217796402e-02 -6.549861665871182e-03 6.062142047740628e-01
-6.050841090957437e-02 -6.796238788953135e-03 6.243186289609381e-01
-6.050841090957437e-02 -6.796238788953135e-03 6.243186289609381e-01
-9.624157549539984e-02 -1.056466254498523e-02 8.895757390277803e-01
-9.624157549539983e-02 -1.056466254498528e-02 8.895757390277802e-01
-9.900884894312188e-02 -1.085467743177293e-02 9.092938809368949e-01
-9.900884894312188e-02 -1.085467743177293e-02 9.092938809368949e-01
-1.366272515997855e-01 -1.481933761870452e-02 1.171245296572154e+00
-1.366272515997856e-01 -1.481933761870446e-02 1.171245296572154e+00
-1.456750733649448e-01 -1.577833390705641e-02 1.232925251134578e+00
-1.456750733649448e-01 -1.577833390705641e-02 1.232925251134578e+00
-1.794413549523088e-01 -1.939323925388931e-02 1.460993685881388e+00
-1.794413549523091e-01 -1.939323925388931e-02 1.460993685881388e+00
-1.950078972754965e-01 -2.107649290330632e-02 1.565352027970433e+00
-1.950078972754965e-01 -2.107649290330632e-02 1.565352027970433e+00
-2.230923026558664e-01 -2.414052539308953e-02 1.753356202486426e+00
-2.230923026558664e-01 -2.414052539308953e-02 1.753356202486426e+00
-2.449722286924425e-01 -2.654264064852291e-02 1.899650306803500e+00
        </DataArray>
        <DataArray type="Float64" Name="uid_0_pair_beam_id" format="ascii">
1.000000000000000e+01
1.000000000000000e+01
1.000000000000000e+01
1.000000000000000e+01
1.100000000000000e+01
1.100000000000000e+01
1.100000000000000e+01
1.100000000000000e+01
1.200000000000000e+01
1.200000000000000e+01
1.200000000000000e+01
1.200000000000000e+01
1.300000000000000e+01
1.300000000000000e+01
1.300000000000000e+01
1.300000000000000e+01
1.300000000000000e+01
1.300000000000000e+01
1.400000000000000e+01
1.400000000000000e+01
1.400000000000000e+01
1.400000000000000e+01
1.500000000000000e+01
1.500000000000000e+01
1.500000000000000e+01
1.500000000000000e+01
1.600000000000000e+01
1.600000000000000e+01
1.600000000000000e+01
1.600000000000000e+01
        </DataArray>
        <DataArray type="Float64" Name="uid_1_pair_solid_id" format="ascii">
0.000000000000000e+00
0.000000000000000e+00
1.000000000000000e+00
1.000000000000000e+00
1.000000000000000e+00
1.000000000000000e+00
2.000000000000000e+00
2.000000000000000e+00
2.000000000000000e+00
2.000000000000000e+00
3.000000000000000e+00
3.000000000000000e+00
3.000000000000000e+00
3.000000000000000e+00
4.000000000000000e+00
4.000000000000000e+00
5.000000000000000e+00
5.000000000000000e+00
5.000000000000000e+00
5.000000000000000e+00
6.000000000000000e+00
6.000000000000000e+00
6.000000000000000e+00
6.000000000000000e+00
7.000000000000000e+00
7.000000000000000e+00
7.000000000000000e+00
7.000000000000000e+00
8.000000000000000e+00
8.000000000000000e+00
        </DataArray>
      </PointData>

    </Piece>
  </UnstructuredGrid>
</VTKFile>
