<?xml version="1.0" ?> 
<!-- 
# vtk DataFile Version 3.0
-->
<VTKFile type="UnstructuredGrid" version="0.1" compressor="vtkZLibDataCompressor" byte_order="LittleEndian">
  <UnstructuredGrid>
    <FieldData>
      <DataArray type="Float64" Name="TIME" NumberOfTuples="1" format="ascii">
1.000000000000000e-08 
      </DataArray>
    </FieldData>

    <Piece NumberOfPoints="21" NumberOfCells="0" >
      <Points>
        <DataArray type="Float64" NumberOfComponents="3" format="ascii">
-4.500000000000000e+00 3.000000000000000e-01 0.000000000000000e+00
-3.357142857140000e+00 3.000000000000000e-01 0.000000000000000e+00
-3.928571428570000e+00 3.000000000000000e-01 0.000000000000000e+00
-3.357142857140000e+00 3.000000000000000e-01 0.000000000000000e+00
-2.214285714290000e+00 3.000000000000000e-01 0.000000000000000e+00
-2.785714285715000e+00 3.000000000000000e-01 0.000000000000000e+00
-2.214285714290000e+00 3.000000000000000e-01 0.000000000000000e+00
-1.071428571430000e+00 3.000000000000000e-01 0.000000000000000e+00
-1.642857142860000e+00 3.000000000000000e-01 0.000000000000000e+00
-1.071428571430000e+00 3.000000000000000e-01 0.000000000000000e+00
7.142857142860000e-02 3.000000000000000e-01 0.000000000000000e+00
-5.000000000007000e-01 3.000000000000000e-01 0.000000000000000e+00
7.142857142860000e-02 3.000000000000000e-01 0.000000000000000e+00
1.214285714290000e+00 3.000000000000000e-01 0.000000000000000e+00
6.428571428593000e-01 3.000000000000000e-01 0.000000000000000e+00
1.214285714290000e+00 3.000000000000000e-01 0.000000000000000e+00
2.357142857140000e+00 3.000000000000000e-01 0.000000000000000e+00
1.785714285715000e+00 3.000000000000000e-01 0.000000000000000e+00
2.357142857140000e+00 3.000000000000000e-01 0.000000000000000e+00
3.500000000000000e+00 3.000000000000000e-01 0.000000000000000e+00
2.928571428570000e+00 3.000000000000000e-01 0.000000000000000e+00
        </DataArray>
      </Points>

      <Cells>
        <DataArray type="Int32" Name="connectivity" format="ascii">
0 1 2 3 4 5 6 7 8 9 10 11 12 13 14 15 16 17 18 19 20 
        </DataArray>
        <DataArray type="Int32" Name="offsets" format="ascii">

        </DataArray>
        <DataArray type="UInt8" Name="types" format="ascii">

        </DataArray>
      </Cells>

  <PointData>
        <DataArray type="Float64" Name="displacement" NumberOfComponents="3" format="ascii">
-1.923493182731661e-04 1.187246502808992e-03 7.164562481010784e-03
-1.972135921504137e-03 -4.412754134717756e-04 6.834324408630751e-02
-7.458536644202596e-04 -6.792110144869801e-04 3.179064716165685e-02
-1.972135921504137e-03 -4.412754134717756e-04 6.834324408630751e-02
-6.924299515328691e-03 -1.230998619191515e-03 1.739408137739435e-01
-4.029838272214370e-03 -1.038502721347034e-03 1.165705964103568e-01
-6.924299515328691e-03 -1.230998619191515e-03 1.739408137739435e-01
-1.510211568873832e-02 -2.090770479196091e-03 3.106209088435005e-01
-1.065364590692619e-02 -1.764220331968158e-03 2.392383031077696e-01
-1.510211568873832e-02 -2.090770479196091e-03 3.106209088435005e-01
-2.576719204079854e-02 -3.003962612139810e-03 4.670123576262628e-01
-2.018780999796421e-02 -2.612127945232523e-03 3.869920737850165e-01
-2.576719204079854e-02 -3.003962612139810e-03 4.670123576262628e-01
-3.796032290032381e-02 -3.904241897287941e-03 6.343149961871722e-01
-3.173059699494862e-02 -3.494666934110546e-03 5.497486633532234e-01
-3.796032290032381e-02 -3.904241897287941e-03 6.343149961871722e-01
-5.084817692870791e-02 -4.735846252188203e-03 8.062941487136158e-01
-4.435792491214130e-02 -4.349283950262184e-03 7.200022264351038e-01
-5.084817692870791e-02 -4.735846252188203e-03 8.062941487136158e-01
-6.391693018459232e-02 -5.466461945591305e-03 9.792594760447196e-01
-5.736816396281386e-02 -5.118508493831608e-03 8.927578602311783e-01
        </DataArray>
        <DataArray type="Float64" Name="lambda" NumberOfComponents="3" format="ascii">
-1.924824197525227e-04 1.452349915474514e-03 -4.859789778569757e-04
6.250922640350161e-05 1.023688921880279e-03 -2.782760002033483e-04
-5.964123734865733e-06 -6.694050853617297e-04 4.045167825358399e-04
6.250922640350161e-05 1.023688921880279e-03 -2.782760002033483e-04
6.895895526574075e-05 6.212890179694722e-04 -9.612562096502143e-05
2.120883478920895e-05 -3.976048135088242e-04 2.735382878754556e-04
6.895895526574075e-05 6.212890179694722e-04 -9.612562096502143e-05
5.586944206547228e-05 3.588846525686031e-04 -4.071359669197117e-07
1.720335639268778e-05 -2.355842599789987e-04 2.094940385903975e-04
5.586944206547228e-05 3.588846525686031e-04 -4.071359669197117e-07
3.462147522612353e-05 2.005675973017239e-04 4.507973046256633e-05
1.085871969291077e-05 -1.327051600007666e-04 1.767782960502694e-04
3.462147522612353e-05 2.005675973017239e-04 4.507973046256633e-05
1.487028998454003e-05 1.126851243198314e-04 7.153753696429604e-05
2.076176922940074e-06 -7.329717692387212e-05 1.586040643510913e-04
1.487028998454003e-05 1.126851243198314e-04 7.153753696429604e-05
-5.559587786375614e-06 6.664550631648751e-05 9.611666025195393e-05
-8.439666011129617e-06 -4.085884206864511e-05 1.437285701967223e-04
-5.559587786375614e-06 6.664550631648751e-05 9.611666025195393e-05
-2.704206883854918e-04 7.028719173791354e-05 9.676290747401205e-05
-3.685242160018727e-05 -2.308434913839196e-05 1.241813927276553e-04
        </DataArray>
        <DataArray type="Float64" Name="uid_0_pair_beam_id" format="ascii">
1.000000000000000e+01
1.000000000000000e+01
1.000000000000000e+01
1.100000000000000e+01
1.100000000000000e+01
1.100000000000000e+01
1.200000000000000e+01
1.200000000000000e+01
1.200000000000000e+01
1.300000000000000e+01
1.300000000000000e+01
1.300000000000000e+01
1.400000000000000e+01
1.400000000000000e+01
1.400000000000000e+01
1.500000000000000e+01
1.500000000000000e+01
1.500000000000000e+01
1.600000000000000e+01
1.600000000000000e+01
1.600000000000000e+01
        </DataArray>
        <DataArray type="Float64" Name="uid_1_pair_solid_id" format="ascii">
0.000000000000000e+00
0.000000000000000e+00
0.000000000000000e+00
0.000000000000000e+00
0.000000000000000e+00
0.000000000000000e+00
0.000000000000000e+00
0.000000000000000e+00
0.000000000000000e+00
0.000000000000000e+00
0.000000000000000e+00
0.000000000000000e+00
2.000000000000000e+00
2.000000000000000e+00
2.000000000000000e+00
2.000000000000000e+00
2.000000000000000e+00
2.000000000000000e+00
4.000000000000000e+00
4.000000000000000e+00
4.000000000000000e+00
        </DataArray>
      </PointData>

    </Piece>
  </UnstructuredGrid>
</VTKFile>
