<?xml version="1.0" ?> 
<!-- 
# vtk DataFile Version 3.0
-->
<VTKFile type="UnstructuredGrid" version="0.1" compressor="vtkZLibDataCompressor" byte_order="LittleEndian">
  <UnstructuredGrid>
    <FieldData>
      <DataArray type="Float64" Name="TIME" NumberOfTuples="1" format="ascii">
1.000000000000000e+00 
      </DataArray>
    </FieldData>

    <Piece NumberOfPoints="204" NumberOfCells="0" >
      <Points>
        <DataArray type="Float64" NumberOfComponents="3" format="ascii">
-5.000000000000000e+00 -5.000000000000000e-01 5.000000000000000e-01
-5.000000000000000e+00 -5.000000000000000e-01 -5.000000000000000e-01
-5.000000000000000e+00 5.000000000000000e-01 -5.000000000000000e-01
-5.000000000000000e+00 5.000000000000000e-01 5.000000000000000e-01
-4.000000000000000e+00 -5.000000000000000e-01 5.000000000000000e-01
-4.000000000000000e+00 -5.000000000000000e-01 -5.000000000000000e-01
-4.000000000000000e+00 5.000000000000000e-01 -5.000000000000000e-01
-4.000000000000000e+00 5.000000000000000e-01 5.000000000000000e-01
-5.000000000000000e+00 -5.000000000000000e-01 0.000000000000000e+00
-5.000000000000000e+00 0.000000000000000e+00 -5.000000000000000e-01
-5.000000000000000e+00 5.000000000000000e-01 0.000000000000000e+00
-5.000000000000000e+00 0.000000000000000e+00 5.000000000000000e-01
-4.500000000000000e+00 -5.000000000000000e-01 5.000000000000000e-01
-4.500000000000000e+00 -5.000000000000000e-01 -5.000000000000000e-01
-4.500000000000000e+00 5.000000000000000e-01 -5.000000000000000e-01
-4.500000000000000e+00 5.000000000000000e-01 5.000000000000000e-01
-4.000000000000000e+00 -5.000000000000000e-01 0.000000000000000e+00
-4.000000000000000e+00 0.000000000000000e+00 -5.000000000000000e-01
-4.000000000000000e+00 5.000000000000000e-01 0.000000000000000e+00
-4.000000000000000e+00 0.000000000000000e+00 5.000000000000000e-01
-4.500000000000000e+00 0.000000000000000e+00 0.000000000000000e+00
-5.000000000000000e+00 0.000000000000000e+00 0.000000000000000e+00
-4.000000000000000e+00 0.000000000000000e+00 0.000000000000000e+00
-4.500000000000000e+00 0.000000000000000e+00 5.000000000000000e-01
-4.500000000000000e+00 0.000000000000000e+00 -5.000000000000000e-01
-4.500000000000000e+00 -5.000000000000000e-01 0.000000000000000e+00
-4.500000000000000e+00 5.000000000000000e-01 0.000000000000000e+00
-3.000000000000000e+00 -5.000000000000000e-01 5.000000000000000e-01
-3.000000000000000e+00 -5.000000000000000e-01 -5.000000000000000e-01
-3.000000000000000e+00 5.000000000000000e-01 -5.000000000000000e-01
-3.000000000000000e+00 5.000000000000000e-01 5.000000000000000e-01
-3.500000000000000e+00 -5.000000000000000e-01 5.000000000000000e-01
-3.500000000000000e+00 -5.000000000000000e-01 -5.000000000000000e-01
-3.500000000000000e+00 5.000000000000000e-01 -5.000000000000000e-01
-3.500000000000000e+00 5.000000000000000e-01 5.000000000000000e-01
-3.000000000000000e+00 -5.000000000000000e-01 0.000000000000000e+00
-3.000000000000000e+00 0.000000000000000e+00 -5.000000000000000e-01
-3.000000000000000e+00 5.000000000000000e-01 0.000000000000000e+00
-3.000000000000000e+00 0.000000000000000e+00 5.000000000000000e-01
-3.500000000000000e+00 0.000000000000000e+00 0.000000000000000e+00
-3.000000000000000e+00 0.000000000000000e+00 0.000000000000000e+00
-3.500000000000000e+00 0.000000000000000e+00 5.000000000000000e-01
-3.500000000000000e+00 0.000000000000000e+00 -5.000000000000000e-01
-3.500000000000000e+00 -5.000000000000000e-01 0.000000000000000e+00
-3.500000000000000e+00 5.000000000000000e-01 0.000000000000000e+00
-2.000000000000000e+00 -5.000000000000000e-01 5.000000000000000e-01
-2.000000000000000e+00 -5.000000000000000e-01 -5.000000000000000e-01
-2.000000000000000e+00 5.000000000000000e-01 -5.000000000000000e-01
-2.000000000000000e+00 5.000000000000000e-01 5.000000000000000e-01
-2.500000000000000e+00 -5.000000000000000e-01 5.000000000000000e-01
-2.500000000000000e+00 -5.000000000000000e-01 -5.000000000000000e-01
-2.500000000000000e+00 5.000000000000000e-01 -5.000000000000000e-01
-2.500000000000000e+00 5.000000000000000e-01 5.000000000000000e-01
-2.000000000000000e+00 -5.000000000000000e-01 0.000000000000000e+00
-2.000000000000000e+00 0.000000000000000e+00 -5.000000000000000e-01
-2.000000000000000e+00 5.000000000000000e-01 0.000000000000000e+00
-2.000000000000000e+00 0.000000000000000e+00 5.000000000000000e-01
-2.500000000000000e+00 0.000000000000000e+00 0.000000000000000e+00
-2.000000000000000e+00 0.000000000000000e+00 0.000000000000000e+00
-2.500000000000000e+00 0.000000000000000e+00 5.000000000000000e-01
-2.500000000000000e+00 0.000000000000000e+00 -5.000000000000000e-01
-2.500000000000000e+00 -5.000000000000000e-01 0.000000000000000e+00
-2.500000000000000e+00 5.000000000000000e-01 0.000000000000000e+00
-1.000000000000000e+00 -5.000000000000000e-01 5.000000000000000e-01
-1.000000000000000e+00 -5.000000000000000e-01 -5.000000000000000e-01
-1.000000000000000e+00 5.000000000000000e-01 -5.000000000000000e-01
-1.000000000000000e+00 5.000000000000000e-01 5.000000000000000e-01
-1.500000000000000e+00 -5.000000000000000e-01 5.000000000000000e-01
-1.500000000000000e+00 -5.000000000000000e-01 -5.000000000000000e-01
-1.500000000000000e+00 5.000000000000000e-01 -5.000000000000000e-01
-1.500000000000000e+00 5.000000000000000e-01 5.000000000000000e-01
-1.000000000000000e+00 -5.000000000000000e-01 0.000000000000000e+00
-1.000000000000000e+00 0.000000000000000e+00 -5.000000000000000e-01
-1.000000000000000e+00 5.000000000000000e-01 0.000000000000000e+00
-1.000000000000000e+00 0.000000000000000e+00 5.000000000000000e-01
-1.500000000000000e+00 0.000000000000000e+00 0.000000000000000e+00
-1.000000000000000e+00 0.000000000000000e+00 0.000000000000000e+00
-1.500000000000000e+00 0.000000000000000e+00 5.000000000000000e-01
-1.500000000000000e+00 0.000000000000000e+00 -5.000000000000000e-01
-1.500000000000000e+00 -5.000000000000000e-01 0.000000000000000e+00
-1.500000000000000e+00 5.000000000000000e-01 0.000000000000000e+00
0.000000000000000e+00 -5.000000000000000e-01 5.000000000000000e-01
0.000000000000000e+00 -5.000000000000000e-01 -5.000000000000000e-01
0.000000000000000e+00 5.000000000000000e-01 -5.000000000000000e-01
0.000000000000000e+00 5.000000000000000e-01 5.000000000000000e-01
-5.000000000000000e-01 -5.000000000000000e-01 5.000000000000000e-01
-5.000000000000000e-01 -5.000000000000000e-01 -5.000000000000000e-01
-5.000000000000000e-01 5.000000000000000e-01 -5.000000000000000e-01
-5.000000000000000e-01 5.000000000000000e-01 5.000000000000000e-01
0.000000000000000e+00 -5.000000000000000e-01 0.000000000000000e+00
0.000000000000000e+00 0.000000000000000e+00 -5.000000000000000e-01
0.000000000000000e+00 5.000000000000000e-01 0.000000000000000e+00
0.000000000000000e+00 0.000000000000000e+00 5.000000000000000e-01
-5.000000000000000e-01 0.000000000000000e+00 0.000000000000000e+00
0.000000000000000e+00 0.000000000000000e+00 0.000000000000000e+00
-5.000000000000000e-01 0.000000000000000e+00 5.000000000000000e-01
-5.000000000000000e-01 0.000000000000000e+00 -5.000000000000000e-01
-5.000000000000000e-01 -5.000000000000000e-01 0.000000000000000e+00
-5.000000000000000e-01 5.000000000000000e-01 0.000000000000000e+00
1.000000000000000e+00 -5.000000000000000e-01 5.000000000000000e-01
1.000000000000000e+00 -5.000000000000000e-01 -5.000000000000000e-01
1.000000000000000e+00 5.000000000000000e-01 -5.000000000000000e-01
1.000000000000000e+00 5.000000000000000e-01 5.000000000000000e-01
5.000000000000000e-01 -5.000000000000000e-01 5.000000000000000e-01
5.000000000000000e-01 -5.000000000000000e-01 -5.000000000000000e-01
5.000000000000000e-01 5.000000000000000e-01 -5.000000000000000e-01
5.000000000000000e-01 5.000000000000000e-01 5.000000000000000e-01
1.000000000000000e+00 -5.000000000000000e-01 0.000000000000000e+00
1.000000000000000e+00 0.000000000000000e+00 -5.000000000000000e-01
1.000000000000000e+00 5.000000000000000e-01 0.000000000000000e+00
1.000000000000000e+00 0.000000000000000e+00 5.000000000000000e-01
5.000000000000000e-01 0.000000000000000e+00 0.000000000000000e+00
1.000000000000000e+00 0.000000000000000e+00 0.000000000000000e+00
5.000000000000000e-01 0.000000000000000e+00 5.000000000000000e-01
5.000000000000000e-01 0.000000000000000e+00 -5.000000000000000e-01
5.000000000000000e-01 -5.000000000000000e-01 0.000000000000000e+00
5.000000000000000e-01 5.000000000000000e-01 0.000000000000000e+00
2.000000000000000e+00 -5.000000000000000e-01 5.000000000000000e-01
2.000000000000000e+00 -5.000000000000000e-01 -5.000000000000000e-01
2.000000000000000e+00 5.000000000000000e-01 -5.000000000000000e-01
2.000000000000000e+00 5.000000000000000e-01 5.000000000000000e-01
1.500000000000000e+00 -5.000000000000000e-01 5.000000000000000e-01
1.500000000000000e+00 -5.000000000000000e-01 -5.000000000000000e-01
1.500000000000000e+00 5.000000000000000e-01 -5.000000000000000e-01
1.500000000000000e+00 5.000000000000000e-01 5.000000000000000e-01
2.000000000000000e+00 -5.000000000000000e-01 0.000000000000000e+00
2.000000000000000e+00 0.000000000000000e+00 -5.000000000000000e-01
2.000000000000000e+00 5.000000000000000e-01 0.000000000000000e+00
2.000000000000000e+00 0.000000000000000e+00 5.000000000000000e-01
1.500000000000000e+00 0.000000000000000e+00 0.000000000000000e+00
2.000000000000000e+00 0.000000000000000e+00 0.000000000000000e+00
1.500000000000000e+00 0.000000000000000e+00 5.000000000000000e-01
1.500000000000000e+00 0.000000000000000e+00 -5.000000000000000e-01
1.500000000000000e+00 -5.000000000000000e-01 0.000000000000000e+00
1.500000000000000e+00 5.000000000000000e-01 0.000000000000000e+00
3.000000000000000e+00 -5.000000000000000e-01 5.000000000000000e-01
3.000000000000000e+00 -5.000000000000000e-01 -5.000000000000000e-01
3.000000000000000e+00 5.000000000000000e-01 -5.000000000000000e-01
3.000000000000000e+00 5.000000000000000e-01 5.000000000000000e-01
2.500000000000000e+00 -5.000000000000000e-01 5.000000000000000e-01
2.500000000000000e+00 -5.000000000000000e-01 -5.000000000000000e-01
2.500000000000000e+00 5.000000000000000e-01 -5.000000000000000e-01
2.500000000000000e+00 5.000000000000000e-01 5.000000000000000e-01
3.000000000000000e+00 -5.000000000000000e-01 0.000000000000000e+00
3.000000000000000e+00 0.000000000000000e+00 -5.000000000000000e-01
3.000000000000000e+00 5.000000000000000e-01 0.000000000000000e+00
3.000000000000000e+00 0.000000000000000e+00 5.000000000000000e-01
2.500000000000000e+00 0.000000000000000e+00 0.000000000000000e+00
3.000000000000000e+00 0.000000000000000e+00 0.000000000000000e+00
2.500000000000000e+00 0.000000000000000e+00 5.000000000000000e-01
2.500000000000000e+00 0.000000000000000e+00 -5.000000000000000e-01
2.500000000000000e+00 -5.000000000000000e-01 0.000000000000000e+00
2.500000000000000e+00 5.000000000000000e-01 0.000000000000000e+00
4.000000000000000e+00 -5.000000000000000e-01 5.000000000000000e-01
4.000000000000000e+00 -5.000000000000000e-01 -5.000000000000000e-01
4.000000000000000e+00 5.000000000000000e-01 -5.000000000000000e-01
4.000000000000000e+00 5.000000000000000e-01 5.000000000000000e-01
3.500000000000000e+00 -5.000000000000000e-01 5.000000000000000e-01
3.500000000000000e+00 -5.000000000000000e-01 -5.000000000000000e-01
3.500000000000000e+00 5.000000000000000e-01 -5.000000000000000e-01
3.500000000000000e+00 5.000000000000000e-01 5.000000000000000e-01
4.000000000000000e+00 -5.000000000000000e-01 0.000000000000000e+00
4.000000000000000e+00 0.000000000000000e+00 -5.000000000000000e-01
4.000000000000000e+00 5.000000000000000e-01 0.000000000000000e+00
4.000000000000000e+00 0.000000000000000e+00 5.000000000000000e-01
3.500000000000000e+00 0.000000000000000e+00 0.000000000000000e+00
4.000000000000000e+00 0.000000000000000e+00 0.000000000000000e+00
3.500000000000000e+00 0.000000000000000e+00 5.000000000000000e-01
3.500000000000000e+00 0.000000000000000e+00 -5.000000000000000e-01
3.500000000000000e+00 -5.000000000000000e-01 0.000000000000000e+00
3.500000000000000e+00 5.000000000000000e-01 0.000000000000000e+00
5.000000000000000e+00 -5.000000000000000e-01 5.000000000000000e-01
5.000000000000000e+00 -5.000000000000000e-01 -5.000000000000000e-01
5.000000000000000e+00 5.000000000000000e-01 -5.000000000000000e-01
5.000000000000000e+00 5.000000000000000e-01 5.000000000000000e-01
4.500000000000000e+00 -5.000000000000000e-01 5.000000000000000e-01
4.500000000000000e+00 -5.000000000000000e-01 -5.000000000000000e-01
4.500000000000000e+00 5.000000000000000e-01 -5.000000000000000e-01
4.500000000000000e+00 5.000000000000000e-01 5.000000000000000e-01
5.000000000000000e+00 -5.000000000000000e-01 0.000000000000000e+00
5.000000000000000e+00 0.000000000000000e+00 -5.000000000000000e-01
5.000000000000000e+00 5.000000000000000e-01 0.000000000000000e+00
5.000000000000000e+00 0.000000000000000e+00 5.000000000000000e-01
4.500000000000000e+00 0.000000000000000e+00 0.000000000000000e+00
5.000000000000000e+00 0.000000000000000e+00 0.000000000000000e+00
4.500000000000000e+00 0.000000000000000e+00 5.000000000000000e-01
4.500000000000000e+00 0.000000000000000e+00 -5.000000000000000e-01
4.500000000000000e+00 -5.000000000000000e-01 0.000000000000000e+00
4.500000000000000e+00 5.000000000000000e-01 0.000000000000000e+00
-4.500000000000000e+00 3.000000000000000e-01 0.000000000000000e+00
-3.928571428570000e+00 3.000000000000000e-01 0.000000000000000e+00
-3.357142857140000e+00 3.000000000000000e-01 0.000000000000000e+00
-2.785714285710000e+00 3.000000000000000e-01 0.000000000000000e+00
-2.214285714290000e+00 3.000000000000000e-01 0.000000000000000e+00
-1.642857142860000e+00 3.000000000000000e-01 0.000000000000000e+00
-1.071428571430000e+00 3.000000000000000e-01 0.000000000000000e+00
-5.000000000000000e-01 3.000000000000000e-01 0.000000000000000e+00
7.142857142860000e-02 3.000000000000000e-01 0.000000000000000e+00
6.428571428570000e-01 3.000000000000000e-01 0.000000000000000e+00
1.214285714290000e+00 3.000000000000000e-01 0.000000000000000e+00
1.785714285710000e+00 3.000000000000000e-01 0.000000000000000e+00
2.357142857140000e+00 3.000000000000000e-01 0.000000000000000e+00
2.928571428570000e+00 3.000000000000000e-01 0.000000000000000e+00
3.500000000000000e+00 3.000000000000000e-01 0.000000000000000e+00
        </DataArray>
      </Points>

      <Cells>
        <DataArray type="Int32" Name="connectivity" format="ascii">
0 1 2 3 4 5 6 7 8 9 10 11 12 13 14 15 16 17 18 19 20 21 22 23 24 25 26 27 28 29 30 31 32 33 34 35 36 37 38 39 40 41 42 43 44 45 46 47 48 49 50 51 52 53 54 55 56 57 58 59 60 61 62 63 64 65 66 67 68 69 70 71 72 73 74 75 76 77 78 79 80 81 82 83 84 85 86 87 88 89 90 91 92 93 94 95 96 97 98 99 100 101 102 103 104 105 106 107 108 109 110 111 112 113 114 115 116 117 118 119 120 121 122 123 124 125 126 127 128 129 130 131 132 133 134 135 136 137 138 139 140 141 142 143 144 145 146 147 148 149 150 151 152 153 154 155 156 157 158 159 160 161 162 163 164 165 166 167 168 169 170 171 172 173 174 175 176 177 178 179 180 181 182 183 184 185 186 187 188 189 190 191 192 193 194 195 196 197 198 199 200 201 202 203 
        </DataArray>
        <DataArray type="Int32" Name="offsets" format="ascii">

        </DataArray>
        <DataArray type="UInt8" Name="types" format="ascii">

        </DataArray>
      </Cells>

  <PointData>
        <DataArray type="Float64" Name="displacement" NumberOfComponents="3" format="ascii">
0.000000000000000e+00 0.000000000000000e+00 0.000000000000000e+00
0.000000000000000e+00 0.000000000000000e+00 0.000000000000000e+00
0.000000000000000e+00 0.000000000000000e+00 0.000000000000000e+00
0.000000000000000e+00 0.000000000000000e+00 0.000000000000000e+00
-4.959810553000716e-02 -3.717923060768168e-03 4.673908246396449e-02
4.419143633320591e-02 3.224389540491365e-03 5.173862426955588e-02
4.408724744921474e-02 3.206400880496283e-03 5.881403463486772e-02
-4.973422224886789e-02 -3.753408175661085e-03 5.376145384643768e-02
0.000000000000000e+00 0.000000000000000e+00 0.000000000000000e+00
0.000000000000000e+00 0.000000000000000e+00 0.000000000000000e+00
0.000000000000000e+00 0.000000000000000e+00 0.000000000000000e+00
0.000000000000000e+00 0.000000000000000e+00 0.000000000000000e+00
-2.564978303105082e-02 -1.814322871776373e-03 1.193492481898115e-02
2.402337987971697e-02 1.691056568779177e-03 1.387931850769735e-02
2.406043929317642e-02 1.682811941295342e-03 1.741026267408401e-02
-2.568568617303561e-02 -1.824663820817271e-03 1.546047578809469e-02
-2.618524249348373e-03 -2.474681891214076e-04 4.921464034564767e-02
4.413994552375605e-02 3.215400756510499e-03 5.527492623023977e-02
-2.794385761051218e-03 -2.753301109716069e-04 5.643401438883423e-02
-4.966584052771785e-02 -3.735652108906405e-03 5.024792474162611e-02
-8.825738182806329e-04 -6.936284936865088e-05 1.465626403067303e-02
0.000000000000000e+00 0.000000000000000e+00 0.000000000000000e+00
-2.704283787981937e-03 -2.613004865133121e-04 5.281142011743986e-02
-2.566874380622546e-02 -1.819472572597099e-03 1.369548690501950e-02
2.404109980735207e-02 1.686943227931582e-03 1.564517179972541e-02
-8.265136486568391e-04 -6.450372928191397e-05 1.290768416290183e-02
-9.446636287455429e-04 -7.416704047016987e-05 1.640283254977335e-02
-9.424303973668735e-02 -7.861869353900371e-03 1.733506776809532e-01
7.015215955963874e-02 5.084407734192376e-03 1.873628221943459e-01
6.964846299371141e-02 5.000636200311075e-03 2.004458006381143e-01
-9.476491741133394e-02 -7.954822377849559e-03 1.864339135150544e-01
-7.203454594699325e-02 -5.710591571338742e-03 1.014127392039676e-01
5.949443190043305e-02 4.352470669106460e-03 1.105623005715809e-01
5.921679520935263e-02 4.303179888915738e-03 1.207460202388421e-01
-7.227457117399579e-02 -5.769073633219252e-03 1.115859691318017e-01
-1.201968790908783e-02 -1.389845200683357e-03 1.803501346403485e-01
6.990036562762415e-02 5.042534225605880e-03 1.939042297845685e-01
-1.252370491217595e-02 -1.477941509871507e-03 1.934938342307852e-01
-9.450332148053160e-02 -7.908301800186734e-03 1.798897510600786e-01
-6.333387071341025e-03 -7.079544206418457e-04 1.110876009337616e-01
-1.227230593210372e-02 -1.433857101270920e-03 1.869168160844138e-01
-7.215361715706491e-02 -5.739796365139703e-03 1.064964299905059e-01
5.935649525940401e-02 4.327842376040823e-03 1.156533312120708e-01
-6.219574029889016e-03 -6.810746213654331e-04 1.059889182339075e-01
-6.442719164536093e-03 -7.348561804156411e-04 1.161930343946665e-01
-1.385728785167390e-01 -1.257487422739449e-02 3.600649284516249e-01
7.690190353553890e-02 5.449564971174567e-03 3.838863177475940e-01
7.557292743076172e-02 5.284646565670429e-03 4.020931424483948e-01
-1.399046163210685e-01 -1.274736797338060e-02 3.782771527801520e-01
-1.162193940325585e-01 -1.015889191801522e-02 2.603138728891707e-01
7.574599461835752e-02 5.446914673309268e-03 2.792631310188828e-01
7.484904576805514e-02 5.324985823388288e-03 2.950425006112056e-01
-1.171070179796340e-01 -1.029145280061686e-02 2.760976652171125e-01
-3.082312045788652e-02 -3.563757145378406e-03 3.719768376875988e-01
7.623767642752437e-02 5.367121187902764e-03 3.929894358310163e-01
-3.213050935782607e-02 -3.731150911526197e-03 3.901988112881075e-01
-1.392378189963105e-01 -1.266105902477755e-02 3.691681780798768e-01
-2.064143433898846e-02 -2.419490502873047e-03 2.777038266744447e-01
-3.147786385505334e-02 -3.647443064103449e-03 3.810856240505348e-01
-1.166621490083677e-01 -1.022511280209763e-02 2.682028916721714e-01
7.529826858425855e-02 5.385968343488918e-03 2.871526650468359e-01
-2.020665078953456e-02 -2.356318284241404e-03 2.697831030934374e-01
-2.107413839650564e-02 -2.482772301172497e-03 2.856365604763375e-01
-1.839418425856356e-01 -1.770631746819082e-02 5.902166133371151e-01
6.653689460527770e-02 4.520260360538392e-03 6.224238936909305e-01
6.425347065568435e-02 4.268771853033712e-03 6.448367413617532e-01
-1.862213689303065e-01 -1.796566411877563e-02 6.126346683947888e-01
-1.610426835622620e-01 -1.510281497234651e-02 4.706634723138167e-01
7.357530223236432e-02 5.139833367002323e-03 4.988955468181954e-01
7.176725726499333e-02 4.932689467422935e-03 5.193309262275255e-01
-1.628511243332361e-01 -1.532068841758094e-02 4.911020236721150e-01
-5.869787454403939e-02 -6.593972138151868e-03 6.063204315563145e-01
6.539558374393267e-02 4.394534005275899e-03 6.336300241028366e-01
-6.095277834182178e-02 -6.847281780876861e-03 6.287496361914989e-01
-1.850805478877869e-01 -1.783591126681701e-02 6.014226297934377e-01
-4.461535009140942e-02 -5.087316093640644e-03 4.950232277210510e-01
-5.982630813080524e-02 -6.720609278099626e-03 6.175327516482506e-01
-1.619458172127206e-01 -1.521166987884522e-02 4.808798495503225e-01
7.267167082570129e-02 5.036280715300256e-03 5.091133860650421e-01
-4.371593120845829e-02 -4.981918325534493e-03 4.847715434560142e-01
-4.551496319250185e-02 -5.192860559500387e-03 5.052875557868701e-01
-2.300892131026082e-01 -2.308558807295995e-02 8.498351484028620e-01
4.258918837133423e-02 2.493336366535570e-03 8.880972946285017e-01
3.944352849237573e-02 2.159984823212902e-03 9.138382268943719e-01
-2.332294546583382e-01 -2.342763227510625e-02 8.755806077135130e-01
-2.069053833208168e-01 -2.037863293202367e-02 7.171215344728910e-01
5.595249646577139e-02 3.635378368685664e-03 7.526301935282335e-01
5.322193493340317e-02 3.342426343164940e-03 7.768199768260370e-01
-2.096396224368995e-01 -2.068192894559685e-02 7.413154404825478e-01
-9.374829947611336e-02 -1.029694276627122e-02 8.689627269379264e-01
4.101666619863992e-02 2.326680325237453e-03 9.009676762196436e-01
-9.687567383100697e-02 -1.063186039475554e-02 8.947367882793773e-01
-2.316582655183918e-01 -2.325651063447687e-02 8.627047688201813e-01
-7.683088926435837e-02 -8.520071909797707e-03 7.469929906765805e-01
-9.531222794284713e-02 -1.046436395748930e-02 8.818464269039842e-01
-2.082713868756106e-01 -2.053018249574309e-02 7.292155135880826e-01
5.458742485122840e-02 3.488921021198769e-03 7.647253299437125e-01
-7.546712939840172e-02 -8.372167071335361e-03 7.348675313569690e-01
-7.819574726666224e-02 -8.668130566175885e-03 7.591298939307746e-01
-2.761667512030221e-01 -2.854392386580671e-02 1.127684588597145e+00
8.958733746438571e-03 -4.476733174626329e-04 1.169613359938154e+00
5.158016462926594e-03 -8.499256987591105e-04 1.197841032468020e+00
-2.799637153155621e-01 -2.895579041131065e-02 1.155917703239516e+00
-2.531446565162773e-01 -2.581609970977202e-02 9.870862537639472e-01
2.669956435775943e-02 1.127582283352575e-03 1.027432678266501e+00
2.320176870219559e-02 7.579330414494306e-04 1.054521634956101e+00
-2.566463951311546e-01 -2.619557212819625e-02 1.014178910105908e+00
-1.336030037520207e-01 -1.449654464931862e-02 1.148641852319737e+00
7.058532972023264e-03 -6.487797976432587e-04 1.183727358059285e+00
-1.373977816135695e-01 -1.490047246436043e-02 1.176921797206885e+00
-2.780641597400239e-01 -2.874973948822994e-02 1.141797953253571e+00
-1.149660332399783e-01 -1.253076819314335e-02 1.020821470184924e+00
-1.354999002988875e-01 -1.469844528639955e-02 1.162777354808603e+00
-2.548943867923359e-01 -2.600572651226961e-02 1.000629548764697e+00
2.495082077071326e-02 9.427757148908152e-04 1.040977380533959e+00
-1.132187738023604e-01 -1.234489152204006e-02 1.007251652805726e+00
-1.167144697662224e-01 -1.271679132577280e-02 1.034401220656685e+00
-3.214344828745174e-01 -3.392101678317947e-02 1.415243820417011e+00
-3.073414650299007e-02 -4.139579550799797e-03 1.458893979637353e+00
-3.494502136170916e-02 -4.591528169273196e-03 1.488784617171361e+00
-3.256451790734031e-01 -3.438305131422296e-02 1.445139443260110e+00
-2.988990319267306e-01 -3.125130683842733e-02 1.270682673920432e+00
-1.036432650213147e-02 -2.209630691203855e-03 1.313656085012033e+00
-1.439743607489157e-02 -2.639537225079717e-03 1.342815549482138e+00
-3.029346837492948e-01 -3.169061395273279e-02 1.299845720149585e+00
-1.760833931837212e-01 -1.903101011846343e-02 1.437059721400253e+00
-3.283951170843269e-02 -4.365535133849813e-03 1.473839601256751e+00
-1.802967082241692e-01 -1.948478724919337e-02 1.467013268814374e+00
-3.235387449741247e-01 -3.415190656225882e-02 1.430188434755977e+00
-1.566456479962292e-01 -1.694682477461452e-02 1.306762986099951e+00
-1.781891489116305e-01 -1.925781569050744e-02 1.452031372962164e+00
-3.009157398175604e-01 -3.147084260773937e-02 1.285261099690449e+00
-1.238077505643129e-02 -2.424565960486650e-03 1.328236008062214e+00
-1.546306090879589e-01 -1.673115185126719e-02 1.292162360012945e+00
-1.586618873453027e-01 -1.716262958961428e-02 1.321372326471538e+00
-3.656773726396244e-01 -3.907100841333077e-02 1.706688931953808e+00
-7.348975061587658e-02 -8.443016232064905e-03 1.750818122384525e+00
-7.788844875583933e-02 -8.921205505052343e-03 1.781542570360309e+00
-3.700633706558926e-01 -3.955873438196409e-02 1.737422709269539e+00
-3.436524908530431e-01 -3.653139621503158e-02 1.560739538457500e+00
-5.190201894670476e-02 -6.223941117447493e-03 1.604725104580536e+00
-5.623020417603829e-02 -6.692238473932114e-03 1.635135619424030e+00
-3.479794738775513e-01 -3.700906332499461e-02 1.591154849971484e+00
-2.195823996351022e-01 -2.375761280691301e-02 1.728744111001611e+00
-7.568933106490548e-02 -8.682092432573193e-03 1.766180672877884e+00
-2.239802060826907e-01 -2.423735856220237e-02 1.759534658937359e+00
-3.678693580878984e-01 -3.931474597475110e-02 1.722052842366138e+00
-1.999397700981284e-01 -2.161306873443936e-02 1.597950328603542e+00
-2.217804470666296e-01 -2.399740391445085e-02 1.744134289108468e+00
-3.458148738209350e-01 -3.677010454865526e-02 1.575944016440018e+00
-5.406608194259100e-02 -6.458071547227356e-03 1.619930550551753e+00
-1.977768384351845e-01 -2.137837684102683e-02 1.582725593153809e+00
-2.021041019827638e-01 -2.184788686684596e-02 1.613183368070812e+00
-4.093757365433181e-01 -4.394345101515065e-02 1.998918925975625e+00
-1.171335979066638e-01 -1.316596095536238e-02 2.043070084162852e+00
-1.215444816684613e-01 -1.365106548563614e-02 2.073903995395801e+00
-4.137706363253436e-01 -4.442913799490184e-02 2.029759501284972e+00
-3.875487048186608e-01 -4.153139249294489e-02 1.852791923154040e+00
-9.528810860681884e-02 -1.077503730751288e-02 1.896947888069851e+00
-9.971181143647589e-02 -1.125840273365788e-02 1.927777619089787e+00
-3.919423093189168e-01 -4.201986802859035e-02 1.883636302513945e+00
-2.632547372971550e-01 -2.855459995572440e-02 2.020995233929572e+00
-1.193392553699194e-01 -1.340851274095396e-02 2.058486874830693e+00
-2.676572501995703e-01 -2.903996887692421e-02 2.051827907996671e+00
-4.115731379660413e-01 -4.418629187506170e-02 2.014339016054041e+00
-2.436228675581027e-01 -2.639547308403532e-02 1.890294552945586e+00
-2.654561473316200e-01 -2.879728039575312e-02 2.036411677426605e+00
-3.897450437934344e-01 -4.177556266226478e-02 1.868212415639801e+00
-9.750030306669298e-02 -1.101670914474041e-02 1.912362780049366e+00
-2.414179869549393e-01 -2.615344588803612e-02 1.874866276550910e+00
-2.458278965126233e-01 -2.663757125422655e-02 1.905727462042199e+00
-4.530347378149217e-01 -4.874526082070434e-02 2.291147327902271e+00
-1.608007695974007e-01 -1.796920188221337e-02 2.335295836907829e+00
-1.652044042872297e-01 -1.845435433757242e-02 2.366132014246490e+00
-4.574379916949190e-01 -4.923053453629287e-02 2.321983972943911e+00
-4.312036083747930e-01 -4.634439682892066e-02 2.145033991553329e+00
-1.389689880808246e-01 -1.556755035870975e-02 2.189182701001559e+00
-1.433725661707467e-01 -1.605283740027950e-02 2.220017365262520e+00
-4.356055163199328e-01 -4.682962516362086e-02 2.175869008530224e+00
-3.069177903854401e-01 -3.335724578420445e-02 2.313221751833622e+00
-1.630025310036232e-01 -1.821177888836188e-02 2.350713924589737e+00
-3.113207497348116e-01 -3.384246004055565e-02 2.344057211077106e+00
-4.552363734375395e-01 -4.898789710688654e-02 2.306565596294554e+00
-2.872877580729064e-01 -3.119857618504926e-02 2.182525874360214e+00
-3.091192985852907e-01 -3.359985221240433e-02 2.328639517158568e+00
-4.334045358360988e-01 -4.658701131854142e-02 2.160451530891435e+00
-1.411707855896757e-01 -1.581019352589532e-02 2.204600037012602e+00
-2.850862875665618e-01 -3.095594797982724e-02 2.167108271154533e+00
-2.894892880324066e-01 -3.144120372475595e-02 2.197943501717709e+00
-1.015521885516340e-03 -7.205781866747858e-05 1.411010515934340e-02
6.020685350613267e-03 -1.029997337604491e-01 -3.723219263966886e-04
-7.853208875204036e-03 -9.035489348601987e-04 1.342363267858257e-01
6.051392889084043e-03 -1.810416360523913e-01 -1.410605489172212e-03
-2.685255689822963e-02 -3.136837394060200e-03 3.404822533597898e-01
6.084131136393100e-03 -2.347319505868586e-01 -2.299858592550689e-03
-5.818309217796405e-02 -6.549861665871183e-03 6.062142047740628e-01
6.118544467829520e-03 -2.686558919095821e-01 -2.992346363049170e-03
-9.900884894312188e-02 -1.085467743177291e-02 9.092938809368949e-01
6.152056500292918e-03 -2.873140916920157e-01 -3.485162370047669e-03
-1.456750733649448e-01 -1.577833390705640e-02 1.232925251134578e+00
6.180119461195782e-03 -2.952007475426556e-01 -3.790231608396995e-03
-1.950078972754967e-01 -2.107649290330631e-02 1.565352027970433e+00
6.197495828135024e-03 -2.967001448438307e-01 -3.929096025887160e-03
-2.449722286924423e-01 -2.654264064852294e-02 1.899650306803500e+00
        </DataArray>
        <DataArray type="Float64" Name="force_beam" NumberOfComponents="3" format="ascii">
0.000000000000000e+00 0.000000000000000e+00 0.000000000000000e+00
0.000000000000000e+00 0.000000000000000e+00 0.000000000000000e+00
0.000000000000000e+00 0.000000000000000e+00 0.000000000000000e+00
0.000000000000000e+00 0.000000000000000e+00 0.000000000000000e+00
0.000000000000000e+00 0.000000000000000e+00 0.000000000000000e+00
0.000000000000000e+00 0.000000000000000e+00 0.000000000000000e+00
0.000000000000000e+00 0.000000000000000e+00 0.000000000000000e+00
0.000000000000000e+00 0.000000000000000e+00 0.000000000000000e+00
0.000000000000000e+00 0.000000000000000e+00 0.000000000000000e+00
0.000000000000000e+00 0.000000000000000e+00 0.000000000000000e+00
0.000000000000000e+00 0.000000000000000e+00 0.000000000000000e+00