<?xml version="1.0" ?> 
<!-- 
# vtk DataFile Version 3.0
-->
<VTKFile type="UnstructuredGrid" version="0.1" compressor="vtkZLibDataCompressor" byte_order="LittleEndian">
  <UnstructuredGrid>
    <FieldData>
      <DataArray type="Float64" Name="TIME" NumberOfTuples="1" format="ascii">
1.000000000000000e+00 
      </DataArray>
    </FieldData>

    <Piece NumberOfPoints="21" NumberOfCells="0" >
      <Points>
        <DataArray type="Float64" NumberOfComponents="3" format="ascii">
-4.500000000000000e+00 3.000000000000000e-01 0.000000000000000e+00
-3.357142857140000e+00 3.000000000000000e-01 0.000000000000000e+00
-3.928571428570000e+00 3.000000000000000e-01 0.000000000000000e+00
-3.357142857140000e+00 3.000000000000000e-01 0.000000000000000e+00
-2.214285714290000e+00 3.000000000000000e-01 0.000000000000000e+00
-2.785714285715000e+00 3.000000000000000e-01 0.000000000000000e+00
-2.214285714290000e+00 3.000000000000000e-01 0.000000000000000e+00
-1.071428571430000e+00 3.000000000000000e-01 0.000000000000000e+00
-1.642857142860000e+00 3.000000000000000e-01 0.000000000000000e+00
-1.071428571430000e+00 3.000000000000000e-01 0.000000000000000e+00
7.142857142860000e-02 3.000000000000000e-01 0.000000000000000e+00
-5.000000000007000e-01 3.000000000000000e-01 0.000000000000000e+00
7.142857142860000e-02 3.000000000000000e-01 0.000000000000000e+00
1.214285714290000e+00 3.000000000000000e-01 0.000000000000000e+00
6.428571428593000e-01 3.000000000000000e-01 0.000000000000000e+00
1.214285714290000e+00 3.000000000000000e-01 0.000000000000000e+00
2.357142857140000e+00 3.000000000000000e-01 0.000000000000000e+00
1.785714285715000e+00 3.000000000000000e-01 0.000000000000000e+00
2.357142857140000e+00 3.000000000000000e-01 0.000000000000000e+00
3.500000000000000e+00 3.000000000000000e-01 0.000000000000000e+00
2.928571428570000e+00 3.000000000000000e-01 0.000000000000000e+00
        </DataArray>
      </Points>

      <Cells>
        <DataArray type="Int32" Name="connectivity" format="ascii">
0 1 2 3 4 5 6 7 8 9 10 11 12 13 14 15 16 17 18 19 20 
        </DataArray>
        <DataArray type="Int32" Name="offsets" format="ascii">

        </DataArray>
        <DataArray type="UInt8" Name="types" format="ascii">

        </DataArray>
      </Cells>

  <PointData>
        <DataArray type="Float64" Name="displacement" NumberOfComponents="3" format="ascii">
-1.015521885515902e-03 -7.205781866748140e-05 1.411010515934340e-02
-7.853208875204132e-03 -9.035489348602210e-04 1.342363267858257e-01
-3.147738885286078e-03 -3.238143312667141e-04 6.254401816297350e-02
-7.853208875204132e-03 -9.035489348602210e-04 1.342363267858257e-01
-2.685255689822963e-02 -3.136837394060177e-03 3.404822533597898e-01
-1.575099617566567e-02 -1.857839144660700e-03 2.285645139719269e-01
-2.685255689822963e-02 -3.136837394060177e-03 3.404822533597898e-01
-5.818309217796402e-02 -6.549861665871182e-03 6.062142047740628e-01
-4.114448932340342e-02 -4.715684439658363e-03 4.675625100051403e-01
-5.818309217796402e-02 -6.549861665871182e-03 6.062142047740628e-01
-9.900884894312188e-02 -1.085467743177293e-02 9.092938809368949e-01
-7.765313383273942e-02 -8.609175652906031e-03 7.543114450472721e-01
-9.900884894312188e-02 -1.085467743177293e-02 9.092938809368949e-01
-1.456750733649448e-01 -1.577833390705641e-02 1.232925251134578e+00
-1.218321989984078e-01 -1.325503975790776e-02 1.069390084132783e+00
-1.456750733649448e-01 -1.577833390705641e-02 1.232925251134578e+00
-1.950078972754965e-01 -2.107649290330632e-02 1.565352027970433e+00
-1.701626092046913e-01 -1.839412499763737e-02 1.398571041079941e+00
-1.950078972754965e-01 -2.107649290330632e-02 1.565352027970433e+00
-2.449722286924425e-01 -2.654264064852291e-02 1.899650306803500e+00
-2.199725855955066e-01 -2.379860454509025e-02 1.732472970235695e+00
        </DataArray>
        <DataArray type="Float64" Name="lambda" NumberOfComponents="3" format="ascii">
-7.072698942741870e-04 1.492849709610098e-05 -9.922662895971404e-04
1.550302320449611e-04 8.824052982139059e-06 -5.321260574685904e-04
3.305154482583708e-05 -6.387131573027428e-06 7.986817616489781e-04
1.550302320449611e-04 8.824052982139059e-06 -5.321260574685904e-04
1.552925835526933e-04 4.824902069664210e-06 -1.648217899738930e-04
5.562795946741504e-05 -3.437635302282471e-06 5.497238619922280e-04
1.552925835526933e-04 4.824902069664210e-06 -1.648217899738930e-04
1.046670506034140e-04 2.980530307327496e-06 1.656310918269917e-05
2.219645827381165e-06 -2.064891807860976e-06 4.154479759150318e-04
1.046670506034140e-04 2.980530307327496e-06 1.656310918269917e-05
5.119512464061989e-05 2.392209787717278e-06 9.451072749325275e-05
-2.165247568804507e-05 -1.399957924495777e-06 3.462315991946537e-04
5.119512464061989e-05 2.392209787717278e-06 9.451072749325275e-05
1.283004537009198e-05 2.173634594098754e-06 1.365375956746294e-04
-3.293256792034694e-05 -1.093832059432950e-06 3.097863497298494e-04
1.283004537009198e-05 2.173634594098754e-06 1.365375956746294e-04
-1.395107848039930e-05 1.810197554138824e-06 1.748015958630694e-04
-4.018900674297863e-05 -8.186555272072226e-07 2.829350396959990e-04
-1.395107848039930e-05 1.810197554138824e-06 1.748015958630694e-04
-2.884920915322765e-05 1.526874641725355e-06 2.060315127120021e-04
-4.462730278007671e-05 -4.145023875345209e-07 2.560195156608835e-04
        </DataArray>
        <DataArray type="Float64" Name="uid_0_pair_beam_id" format="ascii">
1.000000000000000e+01
1.000000000000000e+01
1.000000000000000e+01
1.100000000000000e+01
1.100000000000000e+01
1.100000000000000e+01
1.200000000000000e+01
1.200000000000000e+01
1.200000000000000e+01
1.300000000000000e+01
1.300000000000000e+01
1.300000000000000e+01
1.400000000000000e+01
1.400000000000000e+01
1.400000000000000e+01
1.500000000000000e+01
1.500000000000000e+01
1.500000000000000e+01
1.600000000000000e+01
1.600000000000000e+01
1.600000000000000e+01
        </DataArray>
        <DataArray type="Float64" Name="uid_1_pair_solid_id" format="ascii">
0.000000000000000e+00
0.000000000000000e+00
0.000000000000000e+00
0.000000000000000e+00
0.000000000000000e+00
0.000000000000000e+00
0.000000000000000e+00
0.000000000000000e+00
0.000000000000000e+00
0.000000000000000e+00
0.000000000000000e+00
0.000000000000000e+00
2.000000000000000e+00
2.000000000000000e+00
2.000000000000000e+00
2.000000000000000e+00
2.000000000000000e+00
2.000000000000000e+00
4.000000000000000e+00
4.000000000000000e+00
4.000000000000000e+00
        </DataArray>
      </PointData>

    </Piece>
  </UnstructuredGrid>
</VTKFile>
