<?xml version="1.0" ?> 
<!-- 
# vtk DataFile Version 3.0
-->
<VTKFile type="UnstructuredGrid" version="0.1" compressor="vtkZLibDataCompressor" byte_order="LittleEndian">
  <UnstructuredGrid>
    <FieldData>
      <DataArray type="Float64" Name="TIME" NumberOfTuples="1" format="ascii">
1.000000000000000e+00 
      </DataArray>
      <DataArray type="Float64" Name="sum_coupling_force_beam" NumberOfTuples="1" NumberOfComponents="3" format="ascii">
1.290139743712769e+00 -5.295361089665067e-03 -5.495945340446585e-01 
      </DataArray>
      <DataArray type="Float64" Name="sum_coupling_force_solid" NumberOfTuples="1" NumberOfComponents="3" format="ascii">
-1.290139743712770e+00 5.295361089665066e-03 5.495945340446586e-01 
      </DataArray>
      <DataArray type="Float64" Name="sum_coupling_moment_beam" NumberOfTuples="1" NumberOfComponents="3" format="ascii">
-1.533769186453749e-03 -2.303292463007494e+00 4.778467465530284e-02 
      </DataArray>
      <DataArray type="Float64" Name="sum_coupling_moment_solid" NumberOfTuples="1" NumberOfComponents="3" format="ascii">
1.533769186453787e-03 2.303292463007495e+00 -4.778467465530288e-02 
      </DataArray>
    </FieldData>

    <Piece NumberOfPoints="22" NumberOfCells="0" >
      <Points>
        <DataArray type="Float64" NumberOfComponents="3" format="ascii">
-4.000000000000000e+00 -5.000000000000000e-01 1.000000000000000e-01
0.000000000000000e+00 -5.000000000000000e-01 1.000000000000000e-01
0.000000000000000e+00 -5.000000000000000e-01 -1.000000000000000e-01
1.000000000000000e+00 -5.000000000000000e-01 1.000000000000000e-01
1.000000000000000e+00 -5.000000000000000e-01 -1.000000000000000e-01
1.000000000000000e+00 5.000000000000000e-01 -1.000000000000000e-01
1.000000000000000e+00 5.000000000000000e-01 1.000000000000000e-01
2.000000000000000e+00 -5.000000000000000e-01 1.000000000000000e-01
2.000000000000000e+00 -5.000000000000000e-01 -1.000000000000000e-01
2.000000000000000e+00 5.000000000000000e-01 -1.000000000000000e-01
2.000000000000000e+00 5.000000000000000e-01 1.000000000000000e-01
3.000000000000000e+00 -5.000000000000000e-01 1.000000000000000e-01
3.000000000000000e+00 -5.000000000000000e-01 -1.000000000000000e-01
3.000000000000000e+00 5.000000000000000e-01 1.000000000000000e-01
4.000000000000000e+00 -5.000000000000000e-01 1.000000000000000e-01
4.000000000000000e+00 -5.000000000000000e-01 -1.000000000000000e-01
4.000000000000000e+00 5.000000000000000e-01 -1.000000000000000e-01
4.000000000000000e+00 5.000000000000000e-01 1.000000000000000e-01
5.000000000000000e+00 -5.000000000000000e-01 1.000000000000000e-01
5.000000000000000e+00 -5.000000000000000e-01 -1.000000000000000e-01
5.000000000000000e+00 5.000000000000000e-01 -1.000000000000000e-01
5.000000000000000e+00 5.000000000000000e-01 1.000000000000000e-01
        </DataArray>
      </Points>

      <Cells>
        <DataArray type="Int32" Name="connectivity" format="ascii">

        </DataArray>
        <DataArray type="Int32" Name="offsets" format="ascii">

        </DataArray>
        <DataArray type="UInt8" Name="types" format="ascii">

        </DataArray>
      </Cells>

  <PointData>
        <DataArray type="Float64" Name="displacement" NumberOfComponents="3" format="ascii">
-2.463030213045369e-03 4.707871430399593e-04 3.201509313790582e-02
-7.854804003161171e-02 7.490092045458929e-03 7.341770930883129e-01
-2.576263384855540e-02 6.983430080775874e-03 7.412593583295948e-01
-1.195170612655357e-01 9.521570984568592e-03 1.013335704338379e+00
-6.081966008583571e-02 8.974457428190611e-03 1.022141163227696e+00
-6.187943777239351e-02 8.968811150276946e-03 1.018951168546449e+00
-1.205339533030183e-01 9.516010922716783e-03 1.010159206992075e+00
-1.681102340181896e-01 1.138135512462481e-02 1.318312015345846e+00
-1.050308800291259e-01 1.079952357462133e-02 1.328514280641417e+00
-1.057394866103243e-01 1.079383799351312e-02 1.325219471145186e+00
-1.687942320123918e-01 1.137571257018181e-02 1.315024446242105e+00
-2.224415777591477e-01 1.293518975424845e-02 1.641469238031699e+00
-1.564582835921201e-01 1.235021528014949e-02 1.652675484201423e+00
-2.227904973312209e-01 1.292989435147091e-02 1.638236264935303e+00
-2.802254009221654e-01 1.414851857065059e-02 1.975551240495090e+00
-2.128818673297435e-01 1.360341765190581e-02 1.987210593327994e+00
-2.128806848945340e-01 1.359931927011953e-02 1.984341103734582e+00
-2.803331884497780e-01 1.414429733614104e-02 1.972638441411610e+00
-3.388759428085936e-01 1.485038234495160e-02 2.313048060762361e+00
-2.713043905558951e-01 1.452060544176103e-02 2.324840548382118e+00
-2.713956020881262e-01 1.451906243060913e-02 2.323028046456591e+00
-3.391800970572885e-01 1.484865908288207e-02 2.311165098715897e+00
        </DataArray>
        <DataArray type="Float64" Name="force_beam" NumberOfComponents="3" format="ascii">
0.000000000000000e+00 0.000000000000000e+00 0.000000000000000e+00
0.000000000000000e+00 0.000000000000000e+00 0.000000000000000e+00
0.000000000000000e+00 0.000000000000000e+00 0.000000000000000e+00
0.000000000000000e+00 0.000000000000000e+00 0.000000000000000e+00
0.000000000000000e+00 0.000000000000000e+00 0.000000000000000e+00
0.000000000000000e+00 0.000000000000000e+00 0.000000000000000e+00
0.000000000000000e+00 0.000000000000000e+00 0.000000000000000e+00
0.000000000000000e+00 0.000000000000000e+00 0.000000000000000e+00
0.000000000000000e+00 0.000000000000000e+00 0.000000000000000e+00
0.000000000000000e+00 0.000000000000000e+00 0.000000000000000e+00
0.000000000000000e+00 0.000000000000000e+00 0.000000000000000e+00
0.000000000000000e+00 0.000000000000000e+00 0.000000000000000e+00
0.000000000000000e+00 0.000000000000000e+00 0.000000000000000e+00
0.000000000000000e+00 0.000000000000000e+00 0.000000000000000e+00
0.000000000000000e+00 0.000000000000000e+00 0.000000000000000e+00
0.000000000000000e+00 0.000000000000000e+00 0.000000000000000e+00
0.000000000000000e+00 0.000000000000000e+00 0.000000000000000e+00
0.000000000000000e+00 0.000000000000000e+00 0.000000000000000e+00
0.000000000000000e+00 0.000000000000000e+00 0.000000000000000e+00
0.000000000000000e+00 0.000000000000000e+00 0.000000000000000e+00
0.000000000000000e+00 0.000000000000000e+00 0.000000000000000e+00
0.000000000000000e+00 0.000000000000000e+00 0.000000000000000e+00
        </DataArray>
        <DataArray type="Float64" Name="force_solid" NumberOfComponents="3" format="ascii">
-6.547823611506826e-02 1.795508326437032e-03 8.130286806356943e-02
-5.024742207154218e-02 -6.714464156706405e-04 -7.911731048728008e-03
0.000000000000000e+00 0.000000000000000e+00 0.000000000000000e+00
-5.007409781183324e-02 -1.334933931076895e-04 -8.064611045181757e-03
0.000000000000000e+00 0.000000000000000e+00 0.000000000000000e+00
0.000000000000000e+00 0.000000000000000e+00 0.000000000000000e+00
-5.008020207989233e-02 -1.334328955192272e-04 -8.043780855354272e-03
-4.622327342614790e-02 -1.310594007868960e-03 -1.687857369869785e-02
0.000000000000000e+00 0.000000000000000e+00 0.000000000000000e+00
0.000000000000000e+00 0.000000000000000e+00 0.000000000000000e+00
-4.637625440758749e-02 -1.309171705368996e-03 -1.641423506540744e-02
-4.800337809629914e-02 8.571155164620387e-04 -8.375967649779655e-03
0.000000000000000e+00 0.000000000000000e+00 0.000000000000000e+00
-4.788389837030779e-02 8.560590153582501e-04 -8.715599119625514e-03
-2.303825972342833e-02 -6.579445883312371e-03 -3.933788067308518e-02
0.000000000000000e+00 0.000000000000000e+00 0.000000000000000e+00
0.000000000000000e+00 0.000000000000000e+00 0.000000000000000e+00
-2.390526742789072e-02 -6.572448267311810e-03 -3.690321062001554e-02
-1.945854754758289e-02 5.359177639910114e-03 2.720430955185437e-02
0.000000000000000e+00 0.000000000000000e+00 0.000000000000000e+00
0.000000000000000e+00 0.000000000000000e+00 0.000000000000000e+00
-1.874361786453691e-02 5.355630493283716e-03 2.520533253457195e-02
        </DataArray>
      </PointData>

    </Piece>
  </UnstructuredGrid>
</VTKFile>
