<?xml version="1.0" ?> 
<!-- 
# vtk DataFile Version 3.0
-->
<VTKFile type="UnstructuredGrid" version="0.1" compressor="vtkZLibDataCompressor" byte_order="LittleEndian">
  <UnstructuredGrid>
    <FieldData>
      <DataArray type="Float64" Name="TIME" NumberOfTuples="1" format="ascii">
1.000000000000000e+00 
      </DataArray>
      <DataArray type="Float64" Name="sum_coupling_force_beam" NumberOfTuples="1" NumberOfComponents="3" format="ascii">
1.290139743712769e+00 -5.295361089665067e-03 -5.495945340446585e-01 
      </DataArray>
      <DataArray type="Float64" Name="sum_coupling_force_solid" NumberOfTuples="1" NumberOfComponents="3" format="ascii">
-1.290139743712770e+00 5.295361089665066e-03 5.495945340446586e-01 
      </DataArray>
      <DataArray type="Float64" Name="sum_coupling_moment_beam" NumberOfTuples="1" NumberOfComponents="3" format="ascii">
-1.533769186453749e-03 -2.303292463007494e+00 4.778467465530284e-02 
      </DataArray>
      <DataArray type="Float64" Name="sum_coupling_moment_solid" NumberOfTuples="1" NumberOfComponents="3" format="ascii">
1.533769186453787e-03 2.303292463007495e+00 -4.778467465530288e-02 
      </DataArray>
    </FieldData>

    <Piece NumberOfPoints="22" NumberOfCells="0" >
      <Points>
        <DataArray type="Float64" NumberOfComponents="3" format="ascii">
3.000000000000000e+00 5.000000000000000e-01 -1.000000000000000e-01
-5.000000000000000e+00 0.000000000000000e+00 2.000000000000000e-01
-4.500000000000000e+00 0.000000000000000e+00 2.000000000000000e-01
-4.000000000000000e+00 0.000000000000000e+00 2.000000000000000e-01
-3.500000000000000e+00 0.000000000000000e+00 2.000000000000000e-01
-3.000000000000000e+00 0.000000000000000e+00 2.000000000000000e-01
-2.500000000000000e+00 0.000000000000000e+00 2.000000000000000e-01
-2.000000000000000e+00 0.000000000000000e+00 2.000000000000000e-01
-1.500000000000000e+00 0.000000000000000e+00 2.000000000000000e-01
-1.000000000000000e+00 0.000000000000000e+00 2.000000000000000e-01
-5.000000000000000e-01 0.000000000000000e+00 2.000000000000000e-01
0.000000000000000e+00 0.000000000000000e+00 2.000000000000000e-01
5.000000000000000e-01 0.000000000000000e+00 2.000000000000000e-01
1.000000000000000e+00 0.000000000000000e+00 2.000000000000000e-01
1.500000000000000e+00 0.000000000000000e+00 2.000000000000000e-01
2.000000000000000e+00 0.000000000000000e+00 2.000000000000000e-01
2.500000000000000e+00 0.000000000000000e+00 2.000000000000000e-01
3.000000000000000e+00 0.000000000000000e+00 2.000000000000000e-01
3.500000000000000e+00 0.000000000000000e+00 2.000000000000000e-01
4.000000000000000e+00 0.000000000000000e+00 2.000000000000000e-01
4.500000000000000e+00 0.000000000000000e+00 2.000000000000000e-01
5.000000000000000e+00 0.000000000000000e+00 2.000000000000000e-01
        </DataArray>
      </Points>

      <Cells>
        <DataArray type="Int32" Name="connectivity" format="ascii">

        </DataArray>
        <DataArray type="Int32" Name="offsets" format="ascii">

        </DataArray>
        <DataArray type="UInt8" Name="types" format="ascii">

        </DataArray>
      </Cells>

  <PointData>
        <DataArray type="Float64" Name="displacement" NumberOfComponents="3" format="ascii">
-1.568056370346153e-01 1.234492547205288e-02 1.649441329056285e+00
0.000000000000000e+00 0.000000000000000e+00 0.000000000000000e+00
7.693982165569907e-02 -4.032118289689167e-02 2.355491056008512e-03
-1.041049647686177e-02 5.986586301455442e-04 3.809334743527389e-02
2.306661372987422e-01 -9.561809664605271e-02 1.261795628368566e-02
-2.318797739105731e-02 1.879223993101316e-03 1.322854235545020e-01
3.839913758301992e-01 -1.523646233017227e-01 3.157638059845385e-02
-4.282905714773481e-02 3.609281469610996e-03 2.853368147525547e-01
5.367508437621595e-01 -2.004221217758323e-01 5.761316839567522e-02
-7.028049172979471e-02 5.637745662817687e-03 4.880974202207761e-01
6.890026643640302e-01 -2.369883983580925e-01 8.791011623166371e-02
-1.060009372438811e-01 7.731050576561668e-03 7.319399465672661e-01
8.407445095220568e-01 -2.649181737341658e-01 1.218129460792131e-01
-1.497468553360272e-01 9.788643700159871e-03 1.009642746318637e+00
9.922315069341521e-01 -2.820361208764312e-01 1.564269149311996e-01
-2.001685086285578e-01 1.162756148698181e-02 1.313067867816797e+00
1.143489452596942e+00 -2.909283677628225e-01 1.916145925295925e-01
-2.556842388069734e-01 1.321662473118046e-02 1.635417789644674e+00
1.295070710131695e+00 -2.887687650261215e-01 2.229780526670490e-01
-3.138522212075530e-01 1.439231980751202e-02 1.968589189111033e+00
1.447191574713592e+00 -2.782977429965777e-01 2.495312902049099e-01
-3.709474114395506e-01 1.399284350887671e-02 2.300796393037961e+00
        </DataArray>
        <DataArray type="Float64" Name="force_beam" NumberOfComponents="3" format="ascii">
0.000000000000000e+00 0.000000000000000e+00 0.000000000000000e+00
4.436194648972618e-01 -9.614783039231708e-03 -5.180476637846945e-01
0.000000000000000e+00 0.000000000000000e+00 0.000000000000000e+00
1.013652963643717e-01 -3.087970947643036e-03 -8.697891581906751e-02
0.000000000000000e+00 0.000000000000000e+00 0.000000000000000e+00
5.117152750341646e-02 8.155191773593662e-04 -5.518235114232433e-02
0.000000000000000e+00 0.000000000000000e+00 0.000000000000000e+00
1.162364195987117e-01 6.754408087573235e-04 3.867344318887597e-04
0.000000000000000e+00 0.000000000000000e+00 0.000000000000000e+00
1.059776937851672e-01 9.100398657219832e-04 -6.461814177894066e-03
0.000000000000000e+00 0.000000000000000e+00 0.000000000000000e+00
1.007190348109863e-01 1.444809877427032e-03 1.706852629551754e-02
0.000000000000000e+00 0.000000000000000e+00 0.000000000000000e+00
1.008270100603261e-01 2.357660134235935e-05 1.498795964811935e-02
0.000000000000000e+00 0.000000000000000e+00 0.000000000000000e+00
9.174159777391389e-02 3.139479298800506e-03 3.600207382504253e-02
0.000000000000000e+00 0.000000000000000e+00 0.000000000000000e+00
9.787383915056054e-02 -2.878473260712692e-03 1.331924989073483e-02
0.000000000000000e+00 0.000000000000000e+00 0.000000000000000e+00
4.272018419460256e-02 1.540368892590276e-02 8.973206842147191e-02
0.000000000000000e+00 0.000000000000000e+00 0.000000000000000e+00
3.788767557345125e-02 -1.212668839738896e-02 -5.442040163345327e-02
        </DataArray>
        <DataArray type="Float64" Name="force_solid" NumberOfComponents="3" format="ascii">
0.000000000000000e+00 0.000000000000000e+00 0.000000000000000e+00
0.000000000000000e+00 0.000000000000000e+00 0.000000000000000e+00
0.000000000000000e+00 0.000000000000000e+00 0.000000000000000e+00
0.000000000000000e+00 0.000000000000000e+00 0.000000000000000e+00
0.000000000000000e+00 0.000000000000000e+00 0.000000000000000e+00
0.000000000000000e+00 0.000000000000000e+00 0.000000000000000e+00
0.000000000000000e+00 0.000000000000000e+00 0.000000000000000e+00
0.000000000000000e+00 0.000000000000000e+00 0.000000000000000e+00
0.000000000000000e+00 0.000000000000000e+00 0.000000000000000e+00
0.000000000000000e+00 0.000000000000000e+00 0.000000000000000e+00
0.000000000000000e+00 0.000000000000000e+00 0.000000000000000e+00
0.000000000000000e+00 0.000000000000000e+00 0.000000000000000e+00
0.000000000000000e+00 0.000000000000000e+00 0.000000000000000e+00
0.000000000000000e+00 0.000000000000000e+00 0.000000000000000e+00
0.000000000000000e+00 0.000000000000000e+00 0.000000000000000e+00
0.000000000000000e+00 0.000000000000000e+00 0.000000000000000e+00
0.000000000000000e+00 0.000000000000000e+00 0.000000000000000e+00
0.000000000000000e+00 0.000000000000000e+00 0.000000000000000e+00
0.000000000000000e+00 0.000000000000000e+00 0.000000000000000e+00
0.000000000000000e+00 0.000000000000000e+00 0.000000000000000e+00
0.000000000000000e+00 0.000000000000000e+00 0.000000000000000e+00
0.000000000000000e+00 0.000000000000000e+00 0.000000000000000e+00
        </DataArray>
      </PointData>

    </Piece>
  </UnstructuredGrid>
</VTKFile>
