<?xml version="1.0" ?> 
<!-- 
# vtk DataFile Version 3.0
-->
<VTKFile type="UnstructuredGrid" version="0.1" compressor="vtkZLibDataCompressor" byte_order="LittleEndian">
  <UnstructuredGrid>
    <FieldData>
      <DataArray type="Float64" Name="TIME" NumberOfTuples="1" format="ascii">
1.000000000000000e+00 
      </DataArray>
      <DataArray type="Float64" Name="sum_coupling_force_beam" NumberOfTuples="1" NumberOfComponents="3" format="ascii">
1.290139743712460e+00 -5.295361089550132e-03 -5.495945340445314e-01 
      </DataArray>
      <DataArray type="Float64" Name="sum_coupling_force_solid" NumberOfTuples="1" NumberOfComponents="3" format="ascii">
-1.290139743712460e+00 5.295361089550137e-03 5.495945340445315e-01 
      </DataArray>
      <DataArray type="Float64" Name="sum_coupling_moment_beam" NumberOfTuples="1" NumberOfComponents="3" format="ascii">
-1.533769186629761e-03 -2.303292463008408e+00 4.778467465552741e-02 
      </DataArray>
      <DataArray type="Float64" Name="sum_coupling_moment_solid" NumberOfTuples="1" NumberOfComponents="3" format="ascii">
1.533769186629780e-03 2.303292463008408e+00 -4.778467465552741e-02 
      </DataArray>
    </FieldData>

    <Piece NumberOfPoints="23" NumberOfCells="0" >
      <Points>
        <DataArray type="Float64" NumberOfComponents="3" format="ascii">
2.000000000000000e+00 -5.000000000000000e-01 1.000000000000000e-01
2.000000000000000e+00 -5.000000000000000e-01 -1.000000000000000e-01
2.000000000000000e+00 5.000000000000000e-01 -1.000000000000000e-01
2.000000000000000e+00 5.000000000000000e-01 1.000000000000000e-01
3.000000000000000e+00 -5.000000000000000e-01 1.000000000000000e-01
3.000000000000000e+00 -5.000000000000000e-01 -1.000000000000000e-01
3.000000000000000e+00 5.000000000000000e-01 -1.000000000000000e-01
3.000000000000000e+00 5.000000000000000e-01 1.000000000000000e-01
4.000000000000000e+00 -5.000000000000000e-01 1.000000000000000e-01
4.000000000000000e+00 -5.000000000000000e-01 -1.000000000000000e-01
4.000000000000000e+00 5.000000000000000e-01 -1.000000000000000e-01
4.000000000000000e+00 5.000000000000000e-01 1.000000000000000e-01
5.000000000000000e+00 -5.000000000000000e-01 1.000000000000000e-01
5.000000000000000e+00 -5.000000000000000e-01 -1.000000000000000e-01
5.000000000000000e+00 5.000000000000000e-01 -1.000000000000000e-01
5.000000000000000e+00 5.000000000000000e-01 1.000000000000000e-01
2.000000000000000e+00 0.000000000000000e+00 2.000000000000000e-01
2.500000000000000e+00 0.000000000000000e+00 2.000000000000000e-01
3.000000000000000e+00 0.000000000000000e+00 2.000000000000000e-01
3.500000000000000e+00 0.000000000000000e+00 2.000000000000000e-01
4.000000000000000e+00 0.000000000000000e+00 2.000000000000000e-01
4.500000000000000e+00 0.000000000000000e+00 2.000000000000000e-01
5.000000000000000e+00 0.000000000000000e+00 2.000000000000000e-01
        </DataArray>
      </Points>

      <Cells>
        <DataArray type="Int32" Name="connectivity" format="ascii">
0 1 2 3 4 5 6 7 8 9 10 11 12 13 14 15 16 17 18 19 20 21 22 
        </DataArray>
        <DataArray type="Int32" Name="offsets" format="ascii">

        </DataArray>
        <DataArray type="UInt8" Name="types" format="ascii">

        </DataArray>
      </Cells>

  <PointData>
        <DataArray type="Float64" Name="displacement" NumberOfComponents="3" format="ascii">
-1.681102340181921e-01 1.138135512461750e-02 1.318312015345853e+00
-1.050308800291279e-01 1.079952357461293e-02 1.328514280641424e+00
-1.057394866103233e-01 1.079383799350470e-02 1.325219471145188e+00
-1.687942320123910e-01 1.137571257017445e-02 1.315024446242107e+00
-2.224415777591499e-01 1.293518975423973e-02 1.641469238031706e+00
-1.564582835921226e-01 1.235021528013984e-02 1.652675484201431e+00
-1.568056370346144e-01 1.234492547204307e-02 1.649441329056289e+00
-2.227904973312209e-01 1.292989435146195e-02 1.638236264935307e+00
-2.802254009221687e-01 1.414851857064008e-02 1.975551240495099e+00
-2.128818673297460e-01 1.360341765189474e-02 1.987210593328003e+00
-2.128806848945348e-01 1.359931927010841e-02 1.984341103734589e+00
-2.803331884497789e-01 1.414429733613057e-02 1.972638441411617e+00
-3.388759428085973e-01 1.485038234494070e-02 2.313048060762372e+00
-2.713043905558981e-01 1.452060544174898e-02 2.324840548382131e+00
-2.713956020881274e-01 1.451906243059663e-02 2.323028046456597e+00
-3.391800970572901e-01 1.484865908287090e-02 2.311165098715903e+00
-2.001685086285588e-01 1.162756148697498e-02 1.313067867816802e+00
1.143489452596941e+00 -2.909283677628250e-01 1.916145925295920e-01
-2.556842388069752e-01 1.321662473117203e-02 1.635417789644680e+00
1.295070710131694e+00 -2.887687650261240e-01 2.229780526670484e-01
-3.138522212075552e-01 1.439231980750195e-02 1.968589189111041e+00
1.447191574713591e+00 -2.782977429965796e-01 2.495312902049110e-01
-3.709474114395530e-01 1.399284350886627e-02 2.300796393037971e+00
        </DataArray>
        <DataArray type="Float64" Name="force_beam" NumberOfComponents="3" format="ascii">
0.000000000000000e+00 0.000000000000000e+00 0.000000000000000e+00
0.000000000000000e+00 0.000000000000000e+00 0.000000000000000e+00
0.000000000000000e+00 0.000000000000000e+00 0.000000000000000e+00
0.000000000000000e+00 0.000000000000000e+00 0.000000000000000e+00
0.000000000000000e+00 0.000000000000000e+00 0.000000000000000e+00
0.000000000000000e+00 0.000000000000000e+00 0.000000000000000e+00
0.000000000000000e+00 0.000000000000000e+00 0.000000000000000e+00
0.000000000000000e+00 0.000000000000000e+00 0.000000000000000e+00
0.000000000000000e+00 0.000000000000000e+00 0.000000000000000e+00
0.000000000000000e+00 0.000000000000000e+00 0.000000000000000e+00
0.000000000000000e+00 0.000000000000000e+00 0.000000000000000e+00
0.000000000000000e+00 0.000000000000000e+00 0.000000000000000e+00
0.000000000000000e+00 0.000000000000000e+00 0.000000000000000e+00
0.000000000000000e+00 0.000000000000000e+00 0.000000000000000e+00
0.000000000000000e+00 0.000000000000000e+00 0.000000000000000e+00
0.000000000000000e+00 0.000000000000000e+00 0.000000000000000e+00
9.174159777387000e-02 3.139479298786616e-03 3.600207382488001e-02
0.000000000000000e+00 0.000000000000000e+00 0.000000000000000e+00
9.787383915046717e-02 -2.878473260688300e-03 1.331924989070991e-02
0.000000000000000e+00 0.000000000000000e+00 0.000000000000000e+00
4.272018419469455e-02 1.540368892594179e-02 8.973206842174064e-02
0.000000000000000e+00 0.000000000000000e+00 0.000000000000000e+00
3.788767557360075e-02 -1.212668839737733e-02 -5.442040163324619e-02
        </DataArray>
        <DataArray type="Float64" Name="force_solid" NumberOfComponents="3" format="ascii">
-4.622327342612831e-02 -1.310594007862988e-03 -1.687857369861290e-02
0.000000000000000e+00 0.000000000000000e+00 0.000000000000000e+00
0.000000000000000e+00 0.000000000000000e+00 0.000000000000000e+00
-4.637625440756717e-02 -1.309171705363027e-03 -1.641423506532463e-02
-4.800337809625185e-02 8.571155164502359e-04 -8.375967649777976e-03
0.000000000000000e+00 0.000000000000000e+00 0.000000000000000e+00
0.000000000000000e+00 0.000000000000000e+00 0.000000000000000e+00
-4.788389837026207e-02 8.560590153464594e-04 -8.715599119619321e-03
-2.303825972346972e-02 -6.579445883331525e-03 -3.933788067323317e-02
0.000000000000000e+00 0.000000000000000e+00 0.000000000000000e+00
0.000000000000000e+00 0.000000000000000e+00 0.000000000000000e+00
-2.390526742793463e-02 -6.572448267330940e-03 -3.690321062015647e-02
-1.945854754765954e-02 5.359177639904073e-03 2.720430955176488e-02
0.000000000000000e+00 0.000000000000000e+00 0.000000000000000e+00
0.000000000000000e+00 0.000000000000000e+00 0.000000000000000e+00
-1.874361786461438e-02 5.355630493277668e-03 2.520533253448472e-02
0.000000000000000e+00 0.000000000000000e+00 0.000000000000000e+00
0.000000000000000e+00 0.000000000000000e+00 0.000000000000000e+00
0.000000000000000e+00 0.000000000000000e+00 0.000000000000000e+00
0.000000000000000e+00 0.000000000000000e+00 0.000000000000000e+00
0.000000000000000e+00 0.000000000000000e+00 0.000000000000000e+00
0.000000000000000e+00 0.000000000000000e+00 0.000000000000000e+00
0.000000000000000e+00 0.000000000000000e+00 0.000000000000000e+00
        </DataArray>
      </PointData>

    </Piece>
  </UnstructuredGrid>
</VTKFile>
