<?xml version="1.0" ?> 
<!-- 
# vtk DataFile Version 3.0
-->
<VTKFile type="UnstructuredGrid" version="0.1" compressor="vtkZLibDataCompressor" byte_order="LittleEndian">
  <UnstructuredGrid>
    <FieldData>
      <DataArray type="Float64" Name="TIME" NumberOfTuples="1" format="ascii">
1.000000000000000e+00 
      </DataArray>
      <DataArray type="Float64" Name="sum_coupling_force_beam" NumberOfTuples="1" NumberOfComponents="3" format="ascii">
1.290139743712460e+00 -5.295361089550132e-03 -5.495945340445314e-01 
      </DataArray>
      <DataArray type="Float64" Name="sum_coupling_force_solid" NumberOfTuples="1" NumberOfComponents="3" format="ascii">
-1.290139743712460e+00 5.295361089550137e-03 5.495945340445315e-01 
      </DataArray>
      <DataArray type="Float64" Name="sum_coupling_moment_beam" NumberOfTuples="1" NumberOfComponents="3" format="ascii">
-1.533769186629761e-03 -2.303292463008408e+00 4.778467465552741e-02 
      </DataArray>
      <DataArray type="Float64" Name="sum_coupling_moment_solid" NumberOfTuples="1" NumberOfComponents="3" format="ascii">
1.533769186629780e-03 2.303292463008408e+00 -4.778467465552741e-02 
      </DataArray>
    </FieldData>

    <Piece NumberOfPoints="18" NumberOfCells="0" >
      <Points>
        <DataArray type="Float64" NumberOfComponents="3" format="ascii">
-1.000000000000000e+00 -5.000000000000000e-01 1.000000000000000e-01
-1.000000000000000e+00 -5.000000000000000e-01 -1.000000000000000e-01
-1.000000000000000e+00 5.000000000000000e-01 -1.000000000000000e-01
-1.000000000000000e+00 5.000000000000000e-01 1.000000000000000e-01
0.000000000000000e+00 -5.000000000000000e-01 1.000000000000000e-01
0.000000000000000e+00 -5.000000000000000e-01 -1.000000000000000e-01
0.000000000000000e+00 5.000000000000000e-01 -1.000000000000000e-01
0.000000000000000e+00 5.000000000000000e-01 1.000000000000000e-01
1.000000000000000e+00 -5.000000000000000e-01 1.000000000000000e-01
1.000000000000000e+00 -5.000000000000000e-01 -1.000000000000000e-01
1.000000000000000e+00 5.000000000000000e-01 -1.000000000000000e-01
1.000000000000000e+00 5.000000000000000e-01 1.000000000000000e-01
-1.000000000000000e+00 0.000000000000000e+00 2.000000000000000e-01
-5.000000000000000e-01 0.000000000000000e+00 2.000000000000000e-01
0.000000000000000e+00 0.000000000000000e+00 2.000000000000000e-01
5.000000000000000e-01 0.000000000000000e+00 2.000000000000000e-01
1.000000000000000e+00 0.000000000000000e+00 2.000000000000000e-01
1.500000000000000e+00 0.000000000000000e+00 2.000000000000000e-01
        </DataArray>
      </Points>

      <Cells>
        <DataArray type="Int32" Name="connectivity" format="ascii">
0 1 2 3 4 5 6 7 8 9 10 11 12 13 14 15 16 17 
        </DataArray>
        <DataArray type="Int32" Name="offsets" format="ascii">

        </DataArray>
        <DataArray type="UInt8" Name="types" format="ascii">

        </DataArray>
      </Cells>

  <PointData>
        <DataArray type="Float64" Name="displacement" NumberOfComponents="3" format="ascii">
-4.642481372528680e-02 5.401396690994221e-03 4.884367535738002e-01
-1.113968054835960e-03 4.951008829075194e-03 4.936276030860027e-01
-2.591256711417524e-03 4.946406539334432e-03 4.909719891088627e-01
-4.782745340493961e-02 5.396947780688027e-03 4.857984899721778e-01
-7.854804003161331e-02 7.490092045454587e-03 7.341770930883170e-01
-2.576263384855678e-02 6.983430080770623e-03 7.412593583295990e-01
-2.708375895885816e-02 6.978104933623318e-03 7.382729510434526e-01
-7.981521597795586e-02 7.484880061924840e-03 7.312052043700548e-01
-1.195170612655374e-01 9.521570984562695e-03 1.013335704338384e+00
-6.081966008583725e-02 8.974457428183875e-03 1.022141163227701e+00
-6.187943777239231e-02 8.968811150270102e-03 1.018951168546450e+00
-1.205339533030173e-01 9.516010922710851e-03 1.010159206992077e+00
-7.028049172979474e-02 5.637745662815427e-03 4.880974202207771e-01
6.890026643640301e-01 -2.369883983580939e-01 8.791011623166238e-02
-1.060009372438813e-01 7.731050576557780e-03 7.319399465672684e-01
8.407445095220565e-01 -2.649181737341678e-01 1.218129460792121e-01
-1.497468553360277e-01 9.788643700154439e-03 1.009642746318641e+00
9.922315069341513e-01 -2.820361208764330e-01 1.564269149311990e-01
        </DataArray>
        <DataArray type="Float64" Name="force_beam" NumberOfComponents="3" format="ascii">
0.000000000000000e+00 0.000000000000000e+00 0.000000000000000e+00
0.000000000000000e+00 0.000000000000000e+00 0.000000000000000e+00
0.000000000000000e+00 0.000000000000000e+00 0.000000000000000e+00
0.000000000000000e+00 0.000000000000000e+00 0.000000000000000e+00
0.000000000000000e+00 0.000000000000000e+00 0.000000000000000e+00
0.000000000000000e+00 0.000000000000000e+00 0.000000000000000e+00
0.000000000000000e+00 0.000000000000000e+00 0.000000000000000e+00
0.000000000000000e+00 0.000000000000000e+00 0.000000000000000e+00
0.000000000000000e+00 0.000000000000000e+00 0.000000000000000e+00
0.000000000000000e+00 0.000000000000000e+00 0.000000000000000e+00
0.000000000000000e+00 0.000000000000000e+00 0.000000000000000e+00
0.000000000000000e+00 0.000000000000000e+00 0.000000000000000e+00
1.059776937852560e-01 9.100398657345945e-04 -6.461814177865509e-03
0.000000000000000e+00 0.000000000000000e+00 0.000000000000000e+00
1.007190348110332e-01 1.444809877427113e-03 1.706852629549421e-02
0.000000000000000e+00 0.000000000000000e+00 0.000000000000000e+00
1.008270100604153e-01 2.357660135274449e-05 1.498795964791797e-02
0.000000000000000e+00 0.000000000000000e+00 0.000000000000000e+00
        </DataArray>
        <DataArray type="Float64" Name="force_solid" NumberOfComponents="3" format="ascii">
-5.298859509419927e-02 -4.711998936274966e-04 2.570431244683798e-03
0.000000000000000e+00 0.000000000000000e+00 0.000000000000000e+00
0.000000000000000e+00 0.000000000000000e+00 0.000000000000000e+00
-5.302375544105459e-02 -4.708384472824608e-04 2.726223557022955e-03
-5.024742207156721e-02 -6.714464156710808e-04 -7.911731048712551e-03
0.000000000000000e+00 0.000000000000000e+00 0.000000000000000e+00
0.000000000000000e+00 0.000000000000000e+00 0.000000000000000e+00
-5.030804681975360e-02 -6.708562484186551e-04 -7.687412190254685e-03
-5.007409781187592e-02 -1.334933931121688e-04 -8.064611045081917e-03
0.000000000000000e+00 0.000000000000000e+00 0.000000000000000e+00
0.000000000000000e+00 0.000000000000000e+00 0.000000000000000e+00
-5.008020207993559e-02 -1.334328955237016e-04 -8.043780855252579e-03
0.000000000000000e+00 0.000000000000000e+00 0.000000000000000e+00
0.000000000000000e+00 0.000000000000000e+00 0.000000000000000e+00
0.000000000000000e+00 0.000000000000000e+00 0.000000000000000e+00
0.000000000000000e+00 0.000000000000000e+00 0.000000000000000e+00
0.000000000000000e+00 0.000000000000000e+00 0.000000000000000e+00
0.000000000000000e+00 0.000000000000000e+00 0.000000000000000e+00
        </DataArray>
      </PointData>

    </Piece>
  </UnstructuredGrid>
</VTKFile>
