<?xml version="1.0" ?> 
<!-- 
# vtk DataFile Version 3.0
-->
<VTKFile type="UnstructuredGrid" version="0.1" compressor="vtkZLibDataCompressor" byte_order="LittleEndian">
  <UnstructuredGrid>
    <FieldData>
      <DataArray type="Float64" Name="TIME" NumberOfTuples="1" format="ascii">
1.000000000000000e+00 
      </DataArray>
      <DataArray type="Float64" Name="sum_coupling_force_beam" NumberOfTuples="1" NumberOfComponents="3" format="ascii">
1.290139743712769e+00 -5.295361089665067e-03 -5.495945340446585e-01 
      </DataArray>
      <DataArray type="Float64" Name="sum_coupling_force_solid" NumberOfTuples="1" NumberOfComponents="3" format="ascii">
-1.290139743712770e+00 5.295361089665066e-03 5.495945340446586e-01 
      </DataArray>
      <DataArray type="Float64" Name="sum_coupling_moment_beam" NumberOfTuples="1" NumberOfComponents="3" format="ascii">
-1.533769186453749e-03 -2.303292463007494e+00 4.778467465530284e-02 
      </DataArray>
      <DataArray type="Float64" Name="sum_coupling_moment_solid" NumberOfTuples="1" NumberOfComponents="3" format="ascii">
1.533769186453787e-03 2.303292463007495e+00 -4.778467465530288e-02 
      </DataArray>
    </FieldData>

    <Piece NumberOfPoints="21" NumberOfCells="0" >
      <Points>
        <DataArray type="Float64" NumberOfComponents="3" format="ascii">
-5.000000000000000e+00 -5.000000000000000e-01 1.000000000000000e-01
-5.000000000000000e+00 -5.000000000000000e-01 -1.000000000000000e-01
-5.000000000000000e+00 5.000000000000000e-01 -1.000000000000000e-01
-5.000000000000000e+00 5.000000000000000e-01 1.000000000000000e-01
-4.000000000000000e+00 -5.000000000000000e-01 -1.000000000000000e-01
-4.000000000000000e+00 5.000000000000000e-01 -1.000000000000000e-01
-4.000000000000000e+00 5.000000000000000e-01 1.000000000000000e-01
-3.000000000000000e+00 -5.000000000000000e-01 1.000000000000000e-01
-3.000000000000000e+00 -5.000000000000000e-01 -1.000000000000000e-01
-3.000000000000000e+00 5.000000000000000e-01 -1.000000000000000e-01
-3.000000000000000e+00 5.000000000000000e-01 1.000000000000000e-01
-2.000000000000000e+00 -5.000000000000000e-01 1.000000000000000e-01
-2.000000000000000e+00 -5.000000000000000e-01 -1.000000000000000e-01
-2.000000000000000e+00 5.000000000000000e-01 -1.000000000000000e-01
-2.000000000000000e+00 5.000000000000000e-01 1.000000000000000e-01
-1.000000000000000e+00 -5.000000000000000e-01 1.000000000000000e-01
-1.000000000000000e+00 -5.000000000000000e-01 -1.000000000000000e-01
-1.000000000000000e+00 5.000000000000000e-01 -1.000000000000000e-01
-1.000000000000000e+00 5.000000000000000e-01 1.000000000000000e-01
0.000000000000000e+00 5.000000000000000e-01 -1.000000000000000e-01
0.000000000000000e+00 5.000000000000000e-01 1.000000000000000e-01
        </DataArray>
      </Points>

      <Cells>
        <DataArray type="Int32" Name="connectivity" format="ascii">

        </DataArray>
        <DataArray type="Int32" Name="offsets" format="ascii">

        </DataArray>
        <DataArray type="UInt8" Name="types" format="ascii">

        </DataArray>
      </Cells>

  <PointData>
        <DataArray type="Float64" Name="displacement" NumberOfComponents="3" format="ascii">
0.000000000000000e+00 0.000000000000000e+00 0.000000000000000e+00
0.000000000000000e+00 0.000000000000000e+00 0.000000000000000e+00
0.000000000000000e+00 0.000000000000000e+00 0.000000000000000e+00
0.000000000000000e+00 0.000000000000000e+00 0.000000000000000e+00
1.047709673818948e-02 3.743207055737164e-04 3.242332602706914e-02
9.654038404045882e-03 3.738512590532094e-04 3.188833867991810e-02
-3.139226780146328e-03 4.704232799652038e-04 3.148967277590357e-02
-9.667813329317956e-03 1.700261119463693e-03 1.288867216852356e-01
1.587399784431187e-02 1.449187887203072e-03 1.304996478886444e-01
1.457504130701739e-02 1.447368104469161e-03 1.290696575453787e-01
-1.082244243452925e-02 1.698646187374685e-03 1.274750631088345e-01
-2.363806926540185e-02 3.411563547598495e-03 2.840446932654772e-01
1.261733843973471e-02 3.042151899094963e-03 2.873405261641820e-01
1.113282484254943e-02 3.038760844929204e-03 2.851885319862479e-01
-2.501835556413969e-02 3.408363569278611e-03 2.819120567073786e-01
-4.642481372528573e-02 5.401396690996907e-03 4.884367535737973e-01
-1.113968054834990e-03 4.951008829078795e-03 4.936276030859997e-01
-2.591256711419232e-03 4.946406539338050e-03 4.909719891088638e-01
-4.782745340494102e-02 5.396947780690673e-03 4.857984899721789e-01
-2.708375895885962e-02 6.978104933628601e-03 7.382729510434523e-01
-7.981521597795706e-02 7.484880061929136e-03 7.312052043700545e-01
        </DataArray>
        <DataArray type="Float64" Name="force_beam" NumberOfComponents="3" format="ascii">
0.000000000000000e+00 0.000000000000000e+00 0.000000000000000e+00
0.000000000000000e+00 0.000000000000000e+00 0.000000000000000e+00
0.000000000000000e+00 0.000000000000000e+00 0.000000000000000e+00
0.000000000000000e+00 0.000000000000000e+00 0.000000000000000e+00
0.000000000000000e+00 0.000000000000000e+00 0.000000000000000e+00
0.000000000000000e+00 0.000000000000000e+00 0.000000000000000e+00
0.000000000000000e+00 0.000000000000000e+00 0.000000000000000e+00
0.000000000000000e+00 0.000000000000000e+00 0.000000000000000e+00
0.000000000000000e+00 0.000000000000000e+00 0.000000000000000e+00
0.000000000000000e+00 0.000000000000000e+00 0.000000000000000e+00
0.000000000000000e+00 0.000000000000000e+00 0.000000000000000e+00
0.000000000000000e+00 0.000000000000000e+00 0.000000000000000e+00
0.000000000000000e+00 0.000000000000000e+00 0.000000000000000e+00
0.000000000000000e+00 0.000000000000000e+00 0.000000000000000e+00
0.000000000000000e+00 0.000000000000000e+00 0.000000000000000e+00
0.000000000000000e+00 0.000000000000000e+00 0.000000000000000e+00
0.000000000000000e+00 0.000000000000000e+00 0.000000000000000e+00
0.000000000000000e+00 0.000000000000000e+00 0.000000000000000e+00
0.000000000000000e+00 0.000000000000000e+00 0.000000000000000e+00
0.000000000000000e+00 0.000000000000000e+00 0.000000000000000e+00
0.000000000000000e+00 0.000000000000000e+00 0.000000000000000e+00
        </DataArray>
        <DataArray type="Float64" Name="force_solid" NumberOfComponents="3" format="ascii">
-2.086472066144670e-01 4.559525572089131e-03 2.215404002326712e-01
0.000000000000000e+00 0.000000000000000e+00 0.000000000000000e+00
0.000000000000000e+00 0.000000000000000e+00 0.000000000000000e+00
-2.085994756001580e-01 4.559523329579387e-03 2.196737957387194e-01
0.000000000000000e+00 0.000000000000000e+00 0.000000000000000e+00
0.000000000000000e+00 0.000000000000000e+00 0.000000000000000e+00
-6.542243313724086e-02 1.795150331362064e-03 8.057804528407012e-02
-2.378885330164020e-02 -4.176660787239811e-04 2.321756290845347e-02
0.000000000000000e+00 0.000000000000000e+00 0.000000000000000e+00
0.000000000000000e+00 0.000000000000000e+00 0.000000000000000e+00
-2.380925123793055e-02 -4.174553694342421e-04 2.338656889506713e-02
-5.701073916915483e-02 -3.422337979265101e-04 2.110744108484902e-04
0.000000000000000e+00 0.000000000000000e+00 0.000000000000000e+00
0.000000000000000e+00 0.000000000000000e+00 0.000000000000000e+00
-5.702893235517114e-02 -3.420467312568582e-04 3.109235892490936e-04
-5.298859509415332e-02 -4.711998936210977e-04 2.570431244696518e-03
0.000000000000000e+00 0.000000000000000e+00 0.000000000000000e+00
0.000000000000000e+00 0.000000000000000e+00 0.000000000000000e+00
-5.302375544100806e-02 -4.708384472760683e-04 2.726223557033161e-03
0.000000000000000e+00 0.000000000000000e+00 0.000000000000000e+00
-5.030804681972852e-02 -6.708562484182166e-04 -7.687412190270355e-03
        </DataArray>
      </PointData>

    </Piece>
  </UnstructuredGrid>
</VTKFile>
