<?xml version="1.0" ?> 
<!-- 
# vtk DataFile Version 3.0
-->
<VTKFile type="UnstructuredGrid" version="0.1" compressor="vtkZLibDataCompressor" byte_order="LittleEndian">
  <UnstructuredGrid>
    <FieldData>
      <DataArray type="Float64" Name="TIME" NumberOfTuples="1" format="ascii">
1.000000000000000e+00 
      </DataArray>
    </FieldData>

    <Piece NumberOfPoints="336" NumberOfCells="42" >
      <Points>
        <DataArray type="Float64" NumberOfComponents="3" format="ascii">
2.828427124746190e+02 -2.828427124746190e+02 -5.000000000000000e+00
2.828427124746189e+02 -2.828427124746191e+02 5.000000000000000e+00
2.626396615835747e+02 -2.626396615835749e+02 5.000000000000000e+00
2.626396615835748e+02 -2.626396615835748e+02 -5.000000000000000e+00
2.435045716034883e+02 -3.173413361164941e+02 -5.000000000000000e+00
2.435045716034882e+02 -3.173413361164941e+02 5.000000000000000e+00
2.261113879175247e+02 -2.946740978224587e+02 5.000000000000000e+00
2.261113879175248e+02 -2.946740978224588e+02 -5.000000000000000e+00
2.626396615835748e+02 -2.626396615835748e+02 -5.000000000000000e+00
2.626396615835747e+02 -2.626396615835749e+02 5.000000000000000e+00
2.424366106925305e+02 -2.424366106925306e+02 5.000000000000000e+00
2.424366106925306e+02 -2.424366106925306e+02 -5.000000000000000e+00
2.261113879175248e+02 -2.946740978224588e+02 -5.000000000000000e+00
2.261113879175247e+02 -2.946740978224587e+02 5.000000000000000e+00
2.087182042315613e+02 -2.720068595284235e+02 5.000000000000000e+00
2.087182042315614e+02 -2.720068595284235e+02 -5.000000000000000e+00
2.424366106925306e+02 -2.424366106925306e+02 -5.000000000000000e+00
2.424366106925305e+02 -2.424366106925306e+02 5.000000000000000e+00
2.222335598014863e+02 -2.222335598014863e+02 5.000000000000000e+00
2.222335598014863e+02 -2.222335598014863e+02 -5.000000000000000e+00
2.087182042315614e+02 -2.720068595284235e+02 -5.000000000000000e+00
2.087182042315613e+02 -2.720068595284235e+02 5.000000000000000e+00
1.913250205455978e+02 -2.493396212343882e+02 5.000000000000000e+00
1.913250205455979e+02 -2.493396212343882e+02 -5.000000000000000e+00
2.222335598014863e+02 -2.222335598014863e+02 -5.000000000000000e+00
2.222335598014863e+02 -2.222335598014863e+02 5.000000000000000e+00
2.020305089104421e+02 -2.020305089104422e+02 5.000000000000000e+00
2.020305089104421e+02 -2.020305089104422e+02 -5.000000000000000e+00
1.913250205455979e+02 -2.493396212343882e+02 -5.000000000000000e+00
1.913250205455978e+02 -2.493396212343882e+02 5.000000000000000e+00
1.739318368596345e+02 -2.266723829403529e+02 5.000000000000000e+00
1.739318368596344e+02 -2.266723829403529e+02 -5.000000000000000e+00
2.020305089104421e+02 -2.020305089104422e+02 -5.000000000000000e+00
2.020305089104421e+02 -2.020305089104422e+02 5.000000000000000e+00
1.818274580193979e+02 -1.818274580193979e+02 5.000000000000000e+00
1.818274580193979e+02 -1.818274580193979e+02 -5.000000000000000e+00
1.739318368596344e+02 -2.266723829403529e+02 -5.000000000000000e+00
1.739318368596345e+02 -2.266723829403529e+02 5.000000000000000e+00
1.565386531736710e+02 -2.040051446463176e+02 5.000000000000000e+00
1.565386531736710e+02 -2.040051446463176e+02 -5.000000000000000e+00
1.818274580193979e+02 -1.818274580193979e+02 -5.000000000000000e+00
1.818274580193979e+02 -1.818274580193979e+02 5.000000000000000e+00
1.616244071283537e+02 -1.616244071283538e+02 5.000000000000000e+00
1.616244071283537e+02 -1.616244071283537e+02 -5.000000000000000e+00
1.565386531736710e+02 -2.040051446463176e+02 -5.000000000000000e+00
1.565386531736710e+02 -2.040051446463176e+02 5.000000000000000e+00
1.391454694877076e+02 -1.813379063522823e+02 5.000000000000000e+00
1.391454694877075e+02 -1.813379063522823e+02 -5.000000000000000e+00
1.616244071283537e+02 -1.616244071283537e+02 -5.000000000000000e+00
1.616244071283537e+02 -1.616244071283538e+02 5.000000000000000e+00
1.414213562373095e+02 -1.414213562373095e+02 5.000000000000000e+00
1.414213562373095e+02 -1.414213562373095e+02 -5.000000000000000e+00
1.391454694877075e+02 -1.813379063522823e+02 -5.000000000000000e+00
1.391454694877076e+02 -1.813379063522823e+02 5.000000000000000e+00
1.217522858017441e+02 -1.586706680582470e+02 5.000000000000000e+00
1.217522858017441e+02 -1.586706680582470e+02 -5.000000000000000e+00
2.435045716034883e+02 -3.173413361164941e+02 -5.000000000000000e+00
2.435045716034882e+02 -3.173413361164941e+02 5.000000000000000e+00
2.261113879175247e+02 -2.946740978224587e+02 5.000000000000000e+00
2.261113879175248e+02 -2.946740978224588e+02 -5.000000000000000e+00
1.999999999999999e+02 -3.464101615137754e+02 -5.000000000000000e+00
2.000000000000000e+02 -3.464101615137754e+02 5.000000000000000e+00
1.857142857142857e+02 -3.216665785485058e+02 5.000000000000000e+00
1.857142857142857e+02 -3.216665785485058e+02 -5.000000000000000e+00
2.261113879175248e+02 -2.946740978224588e+02 -5.000000000000000e+00
2.261113879175247e+02 -2.946740978224587e+02 5.000000000000000e+00
2.087182042315613e+02 -2.720068595284235e+02 5.000000000000000e+00
2.087182042315614e+02 -2.720068595284235e+02 -5.000000000000000e+00
1.857142857142857e+02 -3.216665785485058e+02 -5.000000000000000e+00
1.857142857142857e+02 -3.216665785485058e+02 5.000000000000000e+00
1.714285714285714e+02 -2.969229955832361e+02 5.000000000000000e+00
1.714285714285714e+02 -2.969229955832361e+02 -5.000000000000000e+00
2.087182042315614e+02 -2.720068595284235e+02 -5.000000000000000e+00
2.087182042315613e+02 -2.720068595284235e+02 5.000000000000000e+00
1.913250205455978e+02 -2.493396212343882e+02 5.000000000000000e+00
1.913250205455979e+02 -2.493396212343882e+02 -5.000000000000000e+00
1.714285714285714e+02 -2.969229955832361e+02 -5.000000000000000e+00
1.714285714285714e+02 -2.969229955832361e+02 5.000000000000000e+00
1.571428571428571e+02 -2.721794126179664e+02 5.000000000000000e+00
1.571428571428571e+02 -2.721794126179664e+02 -5.000000000000000e+00
1.913250205455979e+02 -2.493396212343882e+02 -5.000000000000000e+00
1.913250205455978e+02 -2.493396212343882e+02 5.000000000000000e+00
1.739318368596345e+02 -2.266723829403529e+02 5.000000000000000e+00
1.739318368596344e+02 -2.266723829403529e+02 -5.000000000000000e+00
1.571428571428571e+02 -2.721794126179664e+02 -5.000000000000000e+00
1.571428571428571e+02 -2.721794126179664e+02 5.000000000000000e+00
1.428571428571428e+02 -2.474358296526968e+02 5.000000000000000e+00
1.428571428571428e+02 -2.474358296526967e+02 -5.000000000000000e+00
1.739318368596344e+02 -2.266723829403529e+02 -5.000000000000000e+00
1.739318368596345e+02 -2.266723829403529e+02 5.000000000000000e+00
1.565386531736710e+02 -2.040051446463176e+02 5.000000000000000e+00
1.565386531736710e+02 -2.040051446463176e+02 -5.000000000000000e+00
1.428571428571428e+02 -2.474358296526967e+02 -5.000000000000000e+00
1.428571428571428e+02 -2.474358296526968e+02 5.000000000000000e+00
1.285714285714285e+02 -2.226922466874271e+02 5.000000000000000e+00
1.285714285714286e+02 -2.226922466874270e+02 -5.000000000000000e+00
1.565386531736710e+02 -2.040051446463176e+02 -5.000000000000000e+00
1.565386531736710e+02 -2.040051446463176e+02 5.000000000000000e+00
1.391454694877076e+02 -1.813379063522823e+02 5.000000000000000e+00
1.391454694877075e+02 -1.813379063522823e+02 -5.000000000000000e+00
1.285714285714286e+02 -2.226922466874270e+02 -5.000000000000000e+00
1.285714285714285e+02 -2.226922466874271e+02 5.000000000000000e+00
1.142857142857142e+02 -1.979486637221574e+02 5.000000000000000e+00
1.142857142857143e+02 -1.979486637221574e+02 -5.000000000000000e+00
1.391454694877075e+02 -1.813379063522823e+02 -5.000000000000000e+00
1.391454694877076e+02 -1.813379063522823e+02 5.000000000000000e+00
1.217522858017441e+02 -1.586706680582470e+02 5.000000000000000e+00
1.217522858017441e+02 -1.586706680582470e+02 -5.000000000000000e+00
1.142857142857143e+02 -1.979486637221574e+02 -5.000000000000000e+00
1.142857142857142e+02 -1.979486637221574e+02 5.000000000000000e+00
9.999999999999997e+01 -1.732050807568877e+02 5.000000000000000e+00
1.000000000000000e+02 -1.732050807568877e+02 -5.000000000000000e+00
1.999999999999999e+02 -3.464101615137754e+02 -5.000000000000000e+00
2.000000000000000e+02 -3.464101615137754e+02 5.000000000000000e+00
1.857142857142857e+02 -3.216665785485058e+02 5.000000000000000e+00
1.857142857142857e+02 -3.216665785485058e+02 -5.000000000000000e+00
1.530733729460358e+02 -3.695518130045147e+02 -5.000000000000000e+00
1.530733729460360e+02 -3.695518130045146e+02 5.000000000000000e+00
1.421395605927477e+02 -3.431552549327636e+02 5.000000000000000e+00
1.421395605927476e+02 -3.431552549327637e+02 -5.000000000000000e+00
1.857142857142857e+02 -3.216665785485058e+02 -5.000000000000000e+00
1.857142857142857e+02 -3.216665785485058e+02 5.000000000000000e+00
1.714285714285714e+02 -2.969229955832361e+02 5.000000000000000e+00
1.714285714285714e+02 -2.969229955832361e+02 -5.000000000000000e+00
1.421395605927476e+02 -3.431552549327637e+02 -5.000000000000000e+00
1.421395605927477e+02 -3.431552549327636e+02 5.000000000000000e+00
1.312057482394594e+02 -3.167586968610125e+02 5.000000000000000e+00
1.312057482394593e+02 -3.167586968610125e+02 -5.000000000000000e+00
1.714285714285714e+02 -2.969229955832361e+02 -5.000000000000000e+00
1.714285714285714e+02 -2.969229955832361e+02 5.000000000000000e+00
1.571428571428571e+02 -2.721794126179664e+02 5.000000000000000e+00
1.571428571428571e+02 -2.721794126179664e+02 -5.000000000000000e+00
1.312057482394593e+02 -3.167586968610125e+02 -5.000000000000000e+00
1.312057482394594e+02 -3.167586968610125e+02 5.000000000000000e+00
1.202719358861711e+02 -2.903621387892615e+02 5.000000000000000e+00
1.202719358861711e+02 -2.903621387892616e+02 -5.000000000000000e+00
1.571428571428571e+02 -2.721794126179664e+02 -5.000000000000000e+00
1.571428571428571e+02 -2.721794126179664e+02 5.000000000000000e+00
1.428571428571428e+02 -2.474358296526968e+02 5.000000000000000e+00
1.428571428571428e+02 -2.474358296526967e+02 -5.000000000000000e+00
[...]
  <PointData>
        <DataArray type="Float64" Name="accumulated_plastic_strain" format="ascii">
2.790045103103255e-02
2.791591765765344e-02
1.553698151301124e-02
1.553166264567038e-02
2.837231763032490e-02
2.838520969261858e-02
1.560512163516660e-02
1.560096089028704e-02
1.553166264567038e-02
1.553698151301124e-02
1.803471821543723e-02
1.802459916215759e-02
1.560096089028704e-02
1.560512163516660e-02
1.786411534081933e-02
1.785470241045720e-02
1.802459916215759e-02
1.803471821543723e-02
2.158768868382858e-02
2.157038647029094e-02
1.785470241045720e-02
1.786411534081933e-02
2.120002177665305e-02
2.118091598633471e-02
2.157038647029094e-02
2.158768868382858e-02
2.669275685490809e-02
2.664008931889238e-02
2.118091598633471e-02
2.120002177665305e-02
2.648554703452467e-02
2.642649584686783e-02
2.664008931889238e-02
2.669275685490809e-02
3.698912047847366e-02
3.665670628336376e-02
2.642649584686783e-02
2.648554703452467e-02
3.756241789736587e-02
3.722671477542918e-02
3.665670628336376e-02
3.698912047847366e-02
6.332204284891946e-02
6.320247469390286e-02
3.722671477542918e-02
3.756241789736587e-02
6.413151238268422e-02
6.401088770987405e-02
6.320247469390286e-02
6.332204284891946e-02
1.940082526069949e-01
1.948731116328692e-01
6.401088770987405e-02
6.413151238268422e-02
1.936777294105172e-01
1.945424122862207e-01
2.837231763032490e-02
2.838520969261858e-02
1.560512163516660e-02
1.560096089028704e-02
2.959470316230976e-02
2.960950922008698e-02
1.574389822971799e-02
1.573891936390095e-02
1.560096089028704e-02
1.560512163516660e-02
1.786411534081933e-02
1.785470241045720e-02
1.573891936390095e-02
1.574389822971799e-02
1.748235602886734e-02
1.747322268541498e-02
1.785470241045720e-02
1.786411534081933e-02
2.120002177665305e-02
2.118091598633471e-02
1.747322268541498e-02
1.748235602886734e-02
2.070304804788499e-02
2.067916189038581e-02
2.118091598633471e-02
2.120002177665305e-02
2.648554703452467e-02
2.642649584686783e-02
2.067916189038581e-02
2.070304804788499e-02
2.683210436810636e-02
2.676289108292446e-02
2.642649584686783e-02
2.648554703452467e-02
3.756241789736587e-02
3.722671477542918e-02
2.676289108292446e-02
2.683210436810636e-02
3.942754469662952e-02
3.909410730082506e-02
3.722671477542918e-02
3.756241789736587e-02
6.413151238268422e-02
6.401088770987405e-02
3.909410730082506e-02
3.942754469662952e-02
6.577412613145296e-02
6.566300877085264e-02
6.401088770987405e-02
6.413151238268422e-02
1.936777294105172e-01
1.945424122862207e-01
6.566300877085264e-02
6.577412613145296e-02
1.923758274597775e-01
1.932282409629703e-01
2.959470316230976e-02
2.960950922008698e-02
1.574389822971799e-02
1.573891936390095e-02
3.120150060598367e-02
3.121859542371426e-02
1.610221624396899e-02
1.608970392900791e-02
1.573891936390095e-02
1.574389822971799e-02
1.748235602886734e-02
1.747322268541498e-02
1.608970392900791e-02
1.610221624396899e-02
1.779990312089148e-02
1.777819244667320e-02
1.747322268541498e-02
1.748235602886734e-02
2.070304804788499e-02
2.067916189038581e-02
1.777819244667320e-02
1.779990312089148e-02
2.177797290893439e-02
2.173865659891387e-02
2.067916189038581e-02
2.070304804788499e-02
2.683210436810636e-02
2.676289108292446e-02
2.173865659891387e-02
2.177797290893439e-02
2.908772541044343e-02
2.900824768069114e-02
2.676289108292446e-02
2.683210436810636e-02
3.942754469662952e-02
3.909410730082506e-02
2.900824768069114e-02
2.908772541044343e-02
4.212294524069025e-02
4.180693723906832e-02
3.909410730082506e-02
3.942754469662952e-02
6.577412613145296e-02
6.566300877085264e-02
4.180693723906832e-02
4.212294524069025e-02
6.688232339641981e-02
6.680038790663193e-02
6.566300877085264e-02
6.577412613145296e-02
1.923758274597775e-01
1.932282409629703e-01
6.680038790663193e-02
6.688232339641981e-02
1.900833785808918e-01
1.909148070281084e-01
3.120150060598367e-02
3.121859542371426e-02
1.610221624396899e-02
1.608970392900791e-02
3.333797784957547e-02
3.334159097762181e-02
1.784591305126748e-02
1.783756748586243e-02
1.608970392900791e-02
1.610221624396899e-02
1.779990312089148e-02
1.777819244667320e-02
1.783756748586243e-02
1.784591305126748e-02
2.065639725085368e-02
2.063149987613537e-02
1.777819244667320e-02
1.779990312089148e-02
2.177797290893439e-02
2.173865659891387e-02
2.063149987613537e-02
2.065639725085368e-02
2.561806316022398e-02
2.557505684842661e-02
2.173865659891387e-02
2.177797290893439e-02
2.908772541044343e-02
2.900824768069114e-02
2.557505684842661e-02
2.561806316022398e-02
3.285051982948891e-02
3.277111575913301e-02
2.900824768069114e-02
2.908772541044343e-02
4.212294524069025e-02
4.180693723906832e-02
3.277111575913301e-02
3.285051982948891e-02
4.432845175544482e-02
4.403108482535922e-02
4.180693723906832e-02
4.212294524069025e-02
6.688232339641981e-02
6.680038790663193e-02
4.403108482535922e-02
4.432845175544482e-02
6.680936595372444e-02
6.674896476132464e-02
6.680038790663193e-02
6.688232339641981e-02
1.900833785808918e-01
1.909148070281084e-01
6.674896476132464e-02
6.680936595372444e-02
1.873255926432244e-01
1.881268443230538e-01
3.333797784957547e-02
3.334159097762181e-02
1.784591305126748e-02
1.783756748586243e-02
3.489710602097070e-02
3.488448418823921e-02
2.087790978265252e-02
2.088716526180771e-02
1.783756748586243e-02
1.784591305126748e-02
2.065639725085368e-02
2.063149987613537e-02
2.088716526180771e-02
2.087790978265252e-02
2.540738265503818e-02
2.540598424087603e-02
2.063149987613537e-02
2.065639725085368e-02
2.561806316022398e-02
2.557505684842661e-02
2.540598424087603e-02
2.540738265503818e-02
3.034607870076812e-02
3.033150154342774e-02
2.557505684842661e-02
2.561806316022398e-02
3.285051982948891e-02
3.277111575913301e-02
3.033150154342774e-02
3.034607870076812e-02
3.610619936393651e-02
3.606690084987634e-02
3.277111575913301e-02
3.285051982948891e-02
4.432845175544482e-02
4.403108482535922e-02
3.606690084987634e-02
3.610619936393651e-02
4.537347742287536e-02
4.511789530417461e-02
4.403108482535922e-02
4.432845175544482e-02
6.680936595372444e-02
6.674896476132464e-02
4.511789530417461e-02
4.537347742287536e-02
6.596644160360604e-02
6.594395731925747e-02
6.674896476132464e-02
6.680936595372444e-02
1.873255926432244e-01
1.881268443230538e-01
6.594395731925747e-02
6.596644160360604e-02
1.841477454186091e-01
1.849262887197433e-01
3.489710602097070e-02
3.488448418823921e-02
2.087790978265252e-02
2.088716526180771e-02
7.035033245566708e-02
7.034278146973920e-02
4.388778190059753e-02
4.391094474886479e-02
2.088716526180771e-02
2.087790978265252e-02
2.540738265503818e-02
2.540598424087603e-02
4.391094474886479e-02
4.388778190059753e-02
5.356899425200358e-02
5.360609847331531e-02
2.540598424087603e-02
2.540738265503818e-02
3.034607870076812e-02
3.033150154342774e-02
5.360609847331531e-02
5.356899425200358e-02
6.275338359999713e-02
6.277588423806219e-02
3.033150154342774e-02
3.034607870076812e-02
3.610619936393651e-02
3.606690084987634e-02
6.277588423806219e-02
6.275338359999713e-02
7.332900998640385e-02
7.331021104434121e-02
3.606690084987634e-02
3.610619936393651e-02
4.537347742287536e-02
4.511789530417461e-02
7.331021104434121e-02
7.332900998640385e-02
9.089157088372973e-02
9.042894125553583e-02
4.511789530417461e-02
4.537347742287536e-02
6.596644160360604e-02
6.594395731925747e-02
9.042894125553583e-02
9.089157088372973e-02
1.306326058059512e-01
1.306551723876170e-01
6.594395731925747e-02
6.596644160360604e-02
1.841477454186091e-01
1.849262887197433e-01
1.306551723876170e-01
1.306326058059512e-01
3.632372864746690e-01
3.648105720246394e-01
        </DataArray>
        <DataArray type="Float64" Name="displacement" NumberOfComponents="3" format="ascii">
-1.866188317445209e+01 1.877678336404345e+01 0.000000000000000e+00
-1.866106603513404e+01 1.877584507481986e+01 3.352060030679475e-01
-1.918968717372107e+01 1.928271449346988e+01 3.397174618796156e-01
-1.918940627290200e+01 1.928259127440518e+01 0.000000000000000e+00
-1.646488650512315e+01 2.060027173229212e+01 0.000000000000000e+00
-1.646380560372500e+01 2.060014073987024e+01 3.389782122135808e-01
-1.692267707496780e+01 2.118831756094436e+01 3.405199905080843e-01
-1.692232646867321e+01 2.118755369309830e+01 0.000000000000000e+00
-1.918940627290200e+01 1.928259127440518e+01 0.000000000000000e+00
-1.918968717372107e+01 1.928271449346988e+01 3.397174618796156e-01
-1.989059815667349e+01 1.996223946804059e+01 3.331592598892286e-01
-1.988984766158746e+01 1.996167595286828e+01 0.000000000000000e+00
-1.692232646867321e+01 2.118755369309830e+01 0.000000000000000e+00
-1.692267707496780e+01 2.118831756094436e+01 3.405199905080843e-01
-1.751745708268047e+01 2.196536186157505e+01 3.303862657532237e-01
-1.751567064181231e+01 2.196455260917191e+01 0.000000000000000e+00
-1.988984766158746e+01 1.996167595286828e+01 0.000000000000000e+00
-1.989059815667349e+01 1.996223946804059e+01 3.331592598892286e-01
-2.083806773275259e+01 2.088772738154305e+01 3.197463942981262e-01
-2.083302190140834e+01 2.088289705463686e+01 0.000000000000000e+00
-1.751567064181231e+01 2.196455260917191e+01 0.000000000000000e+00
-1.751745708268047e+01 2.196536186157505e+01 3.303862657532237e-01
-1.832301128042048e+01 2.299537283102944e+01 3.125285146751779e-01
-1.831679391936203e+01 2.299067135322775e+01 0.000000000000000e+00
-2.083302190140834e+01 2.088289705463686e+01 0.000000000000000e+00
-2.083806773275259e+01 2.088772738154305e+01 3.197463942981262e-01
-2.216165267856373e+01 2.218861727378643e+01 2.498721898293994e-01
-2.215326849482170e+01 2.218052006160066e+01 0.000000000000000e+00
-1.831679391936203e+01 2.299067135322775e+01 0.000000000000000e+00
-1.832301128042048e+01 2.299537283102944e+01 3.125285146751779e-01
-1.946293212841091e+01 2.441576974556173e+01 2.424536951560998e-01
-1.945437439667965e+01 2.440777848781163e+01 0.000000000000000e+00
-2.215326849482170e+01 2.218052006160066e+01 0.000000000000000e+00
-2.216165267856373e+01 2.218861727378643e+01 2.498721898293994e-01
-2.406728928358417e+01 2.407185324636800e+01 1.549149050366726e-01
-2.404544556626031e+01 2.405013297077995e+01 0.000000000000000e+00
-1.945437439667965e+01 2.440777848781163e+01 0.000000000000000e+00
-1.946293212841091e+01 2.441576974556173e+01 2.424536951560998e-01
-2.110597138337321e+01 2.654602420086093e+01 1.485587365433750e-01
-2.108546289227243e+01 2.652316472507341e+01 0.000000000000000e+00
-2.404544556626031e+01 2.405013297077995e+01 0.000000000000000e+00
-2.406728928358417e+01 2.407185324636800e+01 1.549149050366726e-01
-2.749043766415757e+01 2.747910919920814e+01 -3.739342398581402e-01
-2.739003909514733e+01 2.737957864462058e+01 0.000000000000000e+00
-2.108546289227243e+01 2.652316472507341e+01 0.000000000000000e+00
-2.110597138337321e+01 2.654602420086093e+01 1.485587365433750e-01
-2.394648588324031e+01 3.059263585681520e+01 -3.756566659182020e-01
-2.386433696668388e+01 3.048067582824551e+01 0.000000000000000e+00
-2.739003909514733e+01 2.737957864462058e+01 0.000000000000000e+00
-2.749043766415757e+01 2.747910919920814e+01 -3.739342398581402e-01
-3.535533905932737e+01 3.535533905932737e+01 -1.665225600508041e+00
-3.535533905932736e+01 3.535533905932738e+01 0.000000000000000e+00
-2.386433696668388e+01 3.048067582824551e+01 0.000000000000000e+00
-2.394648588324031e+01 3.059263585681520e+01 -3.756566659182020e-01
-3.043807145043603e+01 3.966766701456176e+01 -1.624500267515025e+00
-3.043807145043602e+01 3.966766701456176e+01 0.000000000000000e+00
-1.646488650512315e+01 2.060027173229212e+01 0.000000000000000e+00
-1.646380560372500e+01 2.060014073987024e+01 3.389782122135808e-01
-1.692267707496780e+01 2.118831756094436e+01 3.405199905080843e-01
-1.692232646867321e+01 2.118755369309830e+01 0.000000000000000e+00
-1.387734259764007e+01 2.203007137867464e+01 0.000000000000000e+00
-1.387714921157637e+01 2.203106246925130e+01 3.482996526543772e-01
-1.432374574736138e+01 2.267486571829386e+01 3.403866525338715e-01
-1.432176582175578e+01 2.267272874931302e+01 0.000000000000000e+00
-1.692232646867321e+01 2.118755369309830e+01 0.000000000000000e+00
-1.692267707496780e+01 2.118831756094436e+01 3.405199905080843e-01
-1.751745708268047e+01 2.196536186157505e+01 3.303862657532237e-01
-1.751567064181231e+01 2.196455260917191e+01 0.000000000000000e+00
-1.432176582175578e+01 2.267272874931302e+01 0.000000000000000e+00
-1.432374574736138e+01 2.267486571829386e+01 3.403866525338715e-01
-1.486124793754312e+01 2.349482771939008e+01 3.174912516426290e-01
-1.485749115085836e+01 2.349280171541301e+01 0.000000000000000e+00
-1.751567064181231e+01 2.196455260917191e+01 0.000000000000000e+00
-1.751745708268047e+01 2.196536186157505e+01 3.303862657532237e-01
-1.832301128042048e+01 2.299537283102944e+01 3.125285146751779e-01
-1.831679391936203e+01 2.299067135322775e+01 0.000000000000000e+00
-1.485749115085836e+01 2.349280171541301e+01 0.000000000000000e+00
-1.486124793754312e+01 2.349482771939008e+01 3.174912516426290e-01
-1.554466144325493e+01 2.456925970256851e+01 2.937547224456695e-01
-1.553904673323064e+01 2.456426384474748e+01 0.000000000000000e+00
-1.831679391936203e+01 2.299067135322775e+01 0.000000000000000e+00
-1.832301128042048e+01 2.299537283102944e+01 3.125285146751779e-01
-1.946293212841091e+01 2.441576974556173e+01 2.424536951560998e-01
-1.945437439667965e+01 2.440777848781163e+01 0.000000000000000e+00
-1.553904673323064e+01 2.456426384474748e+01 0.000000000000000e+00
-1.554466144325493e+01 2.456925970256851e+01 2.937547224456695e-01
-1.645372470816932e+01 2.612408486815090e+01 2.315700791147594e-01
-1.644836523177860e+01 2.611545741009260e+01 0.000000000000000e+00
-1.945437439667965e+01 2.440777848781163e+01 0.000000000000000e+00
-1.946293212841091e+01 2.441576974556173e+01 2.424536951560998e-01
-2.110597138337321e+01 2.654602420086093e+01 1.485587365433750e-01
-2.108546289227243e+01 2.652316472507341e+01 0.000000000000000e+00
-1.644836523177860e+01 2.611545741009260e+01 0.000000000000000e+00
-1.645372470816932e+01 2.612408486815090e+01 2.315700791147594e-01
-1.771891513085010e+01 2.863136136106788e+01 1.426273353368587e-01
-1.770364640707938e+01 2.860586614943969e+01 0.000000000000000e+00
-2.108546289227243e+01 2.652316472507341e+01 0.000000000000000e+00
-2.110597138337321e+01 2.654602420086093e+01 1.485587365433750e-01
-2.394648588324031e+01 3.059263585681520e+01 -3.756566659182020e-01
-2.386433696668388e+01 3.048067582824551e+01 0.000000000000000e+00
-1.770364640707938e+01 2.860586614943969e+01 0.000000000000000e+00
-1.771891513085010e+01 2.863136136106788e+01 1.426273353368587e-01
-1.991189654882575e+01 3.337648345757377e+01 -3.681146612167350e-01
-1.985246064461350e+01 3.325716083267953e+01 0.000000000000000e+00
-2.386433696668388e+01 3.048067582824551e+01 0.000000000000000e+00
-2.394648588324031e+01 3.059263585681520e+01 -3.756566659182020e-01
-3.043807145043603e+01 3.966766701456176e+01 -1.624500267515025e+00
-3.043807145043602e+01 3.966766701456176e+01 0.000000000000000e+00
-1.985246064461350e+01 3.325716083267953e+01 0.000000000000000e+00
-1.991189654882575e+01 3.337648345757377e+01 -3.681146612167350e-01
-2.500000000000000e+01 4.330127018922194e+01 -1.531100075992557e+00
-2.500000000000000e+01 4.330127018922193e+01 0.000000000000000e+00
-1.387734259764007e+01 2.203007137867464e+01 0.000000000000000e+00
-1.387714921157637e+01 2.203106246925130e+01 3.482996526543772e-01
-1.432374574736138e+01 2.267486571829386e+01 3.403866525338715e-01
-1.432176582175578e+01 2.267272874931302e+01 0.000000000000000e+00
-1.085327131940390e+01 2.288198953289494e+01 0.000000000000000e+00
-1.085402088813249e+01 2.288544555161291e+01 3.545091057036348e-01
-1.140294367501252e+01 2.355195040369953e+01 3.318657073150845e-01
-1.140010067081312e+01 2.354744254620476e+01 0.000000000000000e+00
-1.432176582175578e+01 2.267272874931302e+01 0.000000000000000e+00
-1.432374574736138e+01 2.267486571829386e+01 3.403866525338715e-01
-1.486124793754312e+01 2.349482771939008e+01 3.174912516426290e-01
-1.485749115085836e+01 2.349280171541301e+01 0.000000000000000e+00
-1.140010067081312e+01 2.354744254620476e+01 0.000000000000000e+00
-1.140294367501252e+01 2.355195040369953e+01 3.318657073150845e-01
-1.196061746310784e+01 2.440307988634252e+01 3.009327102746248e-01
-1.195795204381164e+01 2.440002095224727e+01 0.000000000000000e+00
-1.485749115085836e+01 2.349280171541301e+01 0.000000000000000e+00
-1.486124793754312e+01 2.349482771939008e+01 3.174912516426290e-01
-1.554466144325493e+01 2.456925970256851e+01 2.937547224456695e-01
-1.553904673323064e+01 2.456426384474748e+01 0.000000000000000e+00
-1.195795204381164e+01 2.440002095224727e+01 0.000000000000000e+00
-1.196061746310784e+01 2.440307988634252e+01 3.009327102746248e-01
-1.252699546112552e+01 2.560486886274856e+01 2.873198910314660e-01
-1.252629445946955e+01 2.560037054520041e+01 0.000000000000000e+00
-1.553904673323064e+01 2.456426384474748e+01 0.000000000000000e+00
-1.554466144325493e+01 2.456925970256851e+01 2.937547224456695e-01
-1.645372470816932e+01 2.612408486815090e+01 2.315700791147594e-01
-1.644836523177860e+01 2.611545741009260e+01 0.000000000000000e+00
-1.252629445946955e+01 2.560037054520041e+01 0.000000000000000e+00
-1.252699546112552e+01 2.560486886274856e+01 2.873198910314660e-01
-1.312949762390950e+01 2.747862062638029e+01 2.416544035742555e-01
-1.312885560378228e+01 2.746955636664843e+01 0.000000000000000e+00
-1.644836523177860e+01 2.611545741009260e+01 0.000000000000000e+00
-1.645372470816932e+01 2.612408486815090e+01 2.315700791147594e-01
-1.771891513085010e+01 2.863136136106788e+01 1.426273353368587e-01
-1.770364640707938e+01 2.860586614943969e+01 0.000000000000000e+00
-1.312885560378228e+01 2.746955636664843e+01 0.000000000000000e+00
-1.312949762390950e+01 2.747862062638029e+01 2.416544035742555e-01
-1.390574347411481e+01 3.050001226434749e+01 1.550039036598571e-01
-1.389673430264706e+01 3.047202202818789e+01 0.000000000000000e+00
-1.770364640707938e+01 2.860586614943969e+01 0.000000000000000e+00
-1.771891513085010e+01 2.863136136106788e+01 1.426273353368587e-01
-1.991189654882575e+01 3.337648345757377e+01 -3.681146612167350e-01
-1.985246064461350e+01 3.325716083267953e+01 0.000000000000000e+00
-1.389673430264706e+01 3.047202202818789e+01 0.000000000000000e+00
-1.390574347411481e+01 3.050001226434749e+01 1.550039036598571e-01
-1.539630424918217e+01 3.579648835679119e+01 -3.403281214386155e-01
-1.535765753739999e+01 3.567418636479645e+01 0.000000000000000e+00
-1.985246064461350e+01 3.325716083267953e+01 0.000000000000000e+00
-1.991189654882575e+01 3.337648345757377e+01 -3.681146612167350e-01
-2.500000000000000e+01 4.330127018922194e+01 -1.531100075992557e+00
-2.500000000000000e+01 4.330127018922193e+01 0.000000000000000e+00
-1.535765753739999e+01 3.567418636479645e+01 0.000000000000000e+00
-1.539630424918217e+01 3.579648835679119e+01 -3.403281214386155e-01
-1.913417161825448e+01 4.619397662556434e+01 -1.432527837212868e+00
-1.913417161825450e+01 4.619397662556433e+01 0.000000000000000e+00
-1.085327131940390e+01 2.288198953289494e+01 0.000000000000000e+00
-1.085402088813249e+01 2.288544555161291e+01 3.545091057036348e-01
-1.140294367501252e+01 2.355195040369953e+01 3.318657073150845e-01
-1.140010067081312e+01 2.354744254620476e+01 0.000000000000000e+00
-7.371214380111272e+00 2.288254833773642e+01 0.000000000000000e+00
-7.370582725865109e+00 2.288665884794706e+01 3.663791957846577e-01
-8.117764527000698e+00 2.366747862684074e+01 3.432140381863713e-01
-8.121145077919405e+00 2.366186146885528e+01 0.000000000000000e+00
-1.140010067081312e+01 2.354744254620476e+01 0.000000000000000e+00
-1.140294367501252e+01 2.355195040369953e+01 3.318657073150845e-01
-1.196061746310784e+01 2.440307988634252e+01 3.009327102746248e-01
-1.195795204381164e+01 2.440002095224727e+01 0.000000000000000e+00
-8.121145077919405e+00 2.366186146885528e+01 0.000000000000000e+00
-8.117764527000698e+00 2.366747862684074e+01 3.432140381863713e-01
-8.697659388538780e+00 2.474210749510218e+01 3.209740845906736e-01
-8.705550511981793e+00 2.473880723320845e+01 0.000000000000000e+00