<?xml version="1.0" ?> 
<!-- 
# vtk DataFile Version 3.0
-->
<VTKFile type="UnstructuredGrid" version="0.1" compressor="vtkZLibDataCompressor" byte_order="LittleEndian">
  <UnstructuredGrid>
    <FieldData>
      <DataArray type="Float64" Name="TIME" NumberOfTuples="1" format="ascii">
5.000000000000000e-01 
      </DataArray>
    </FieldData>

    <Piece NumberOfPoints="336" NumberOfCells="42" >
      <Points>
        <DataArray type="Float64" NumberOfComponents="3" format="ascii">
4.000000000000000e+02 0.000000000000000e+00 -5.000000000000000e+00
4.000000000000000e+02 0.000000000000000e+00 5.000000000000000e+00
3.714285714285714e+02 0.000000000000000e+00 5.000000000000000e+00
3.714285714285714e+02 0.000000000000000e+00 -5.000000000000000e+00
3.965779445495241e+02 -5.221047688802063e+01 -5.000000000000000e+00
3.965779445495241e+02 -5.221047688802067e+01 5.000000000000000e+00
3.682509485102725e+02 -4.848115711030491e+01 5.000000000000000e+00
3.682509485102725e+02 -4.848115711030487e+01 -5.000000000000000e+00
3.714285714285714e+02 0.000000000000000e+00 -5.000000000000000e+00
3.714285714285714e+02 0.000000000000000e+00 5.000000000000000e+00
3.428571428571428e+02 0.000000000000000e+00 5.000000000000000e+00
3.428571428571429e+02 0.000000000000000e+00 -5.000000000000000e+00
3.682509485102725e+02 -4.848115711030487e+01 -5.000000000000000e+00
3.682509485102725e+02 -4.848115711030491e+01 5.000000000000000e+00
3.399239524710206e+02 -4.475183733258914e+01 5.000000000000000e+00
3.399239524710206e+02 -4.475183733258911e+01 -5.000000000000000e+00
3.428571428571429e+02 0.000000000000000e+00 -5.000000000000000e+00
3.428571428571428e+02 0.000000000000000e+00 5.000000000000000e+00
3.142857142857143e+02 0.000000000000000e+00 5.000000000000000e+00
3.142857142857143e+02 0.000000000000000e+00 -5.000000000000000e+00
3.399239524710206e+02 -4.475183733258911e+01 -5.000000000000000e+00
3.399239524710206e+02 -4.475183733258914e+01 5.000000000000000e+00
3.115969564317688e+02 -4.102251755487337e+01 5.000000000000000e+00
3.115969564317689e+02 -4.102251755487335e+01 -5.000000000000000e+00
3.142857142857143e+02 0.000000000000000e+00 -5.000000000000000e+00
3.142857142857143e+02 0.000000000000000e+00 5.000000000000000e+00
2.857142857142857e+02 0.000000000000000e+00 5.000000000000000e+00
2.857142857142857e+02 0.000000000000000e+00 -5.000000000000000e+00
3.115969564317689e+02 -4.102251755487335e+01 -5.000000000000000e+00
3.115969564317688e+02 -4.102251755487337e+01 5.000000000000000e+00
2.832699603925173e+02 -3.729319777715760e+01 5.000000000000000e+00
2.832699603925172e+02 -3.729319777715761e+01 -5.000000000000000e+00
2.857142857142857e+02 0.000000000000000e+00 -5.000000000000000e+00
2.857142857142857e+02 0.000000000000000e+00 5.000000000000000e+00
2.571428571428571e+02 0.000000000000000e+00 5.000000000000000e+00
2.571428571428572e+02 0.000000000000000e+00 -5.000000000000000e+00
2.832699603925172e+02 -3.729319777715761e+01 -5.000000000000000e+00
2.832699603925173e+02 -3.729319777715760e+01 5.000000000000000e+00
2.549429643532654e+02 -3.356387799944184e+01 5.000000000000000e+00
2.549429643532656e+02 -3.356387799944184e+01 -5.000000000000000e+00
2.571428571428572e+02 0.000000000000000e+00 -5.000000000000000e+00
2.571428571428571e+02 0.000000000000000e+00 5.000000000000000e+00
2.285714285714286e+02 0.000000000000000e+00 5.000000000000000e+00
2.285714285714286e+02 0.000000000000000e+00 -5.000000000000000e+00
2.549429643532656e+02 -3.356387799944184e+01 -5.000000000000000e+00
2.549429643532654e+02 -3.356387799944184e+01 5.000000000000000e+00
2.266159683140137e+02 -2.983455822172607e+01 5.000000000000000e+00
2.266159683140138e+02 -2.983455822172609e+01 -5.000000000000000e+00
2.285714285714286e+02 0.000000000000000e+00 -5.000000000000000e+00
2.285714285714286e+02 0.000000000000000e+00 5.000000000000000e+00
2.000000000000000e+02 0.000000000000000e+00 5.000000000000000e+00
2.000000000000000e+02 0.000000000000000e+00 -5.000000000000000e+00
2.266159683140138e+02 -2.983455822172609e+01 -5.000000000000000e+00
2.266159683140137e+02 -2.983455822172607e+01 5.000000000000000e+00
1.982889722747620e+02 -2.610523844401031e+01 5.000000000000000e+00
1.982889722747620e+02 -2.610523844401034e+01 -5.000000000000000e+00
3.965779445495241e+02 -5.221047688802063e+01 -5.000000000000000e+00
3.965779445495241e+02 -5.221047688802067e+01 5.000000000000000e+00
3.682509485102725e+02 -4.848115711030491e+01 5.000000000000000e+00
3.682509485102725e+02 -4.848115711030487e+01 -5.000000000000000e+00
3.863703305156273e+02 -1.035276180410083e+02 -5.000000000000000e+00
3.863703305156273e+02 -1.035276180410083e+02 5.000000000000000e+00
3.587724497645111e+02 -9.613278818093622e+01 5.000000000000000e+00
3.587724497645111e+02 -9.613278818093627e+01 -5.000000000000000e+00
3.682509485102725e+02 -4.848115711030487e+01 -5.000000000000000e+00
3.682509485102725e+02 -4.848115711030491e+01 5.000000000000000e+00
3.399239524710206e+02 -4.475183733258914e+01 5.000000000000000e+00
3.399239524710206e+02 -4.475183733258911e+01 -5.000000000000000e+00
3.587724497645111e+02 -9.613278818093627e+01 -5.000000000000000e+00
3.587724497645111e+02 -9.613278818093622e+01 5.000000000000000e+00
3.311745690133948e+02 -8.873795832086424e+01 5.000000000000000e+00
3.311745690133949e+02 -8.873795832086424e+01 -5.000000000000000e+00
3.399239524710206e+02 -4.475183733258911e+01 -5.000000000000000e+00
3.399239524710206e+02 -4.475183733258914e+01 5.000000000000000e+00
3.115969564317688e+02 -4.102251755487337e+01 5.000000000000000e+00
3.115969564317689e+02 -4.102251755487335e+01 -5.000000000000000e+00
3.311745690133949e+02 -8.873795832086424e+01 -5.000000000000000e+00
3.311745690133948e+02 -8.873795832086424e+01 5.000000000000000e+00
3.035766882622786e+02 -8.134312846079223e+01 5.000000000000000e+00
3.035766882622786e+02 -8.134312846079223e+01 -5.000000000000000e+00
3.115969564317689e+02 -4.102251755487335e+01 -5.000000000000000e+00
3.115969564317688e+02 -4.102251755487337e+01 5.000000000000000e+00
2.832699603925173e+02 -3.729319777715760e+01 5.000000000000000e+00
2.832699603925172e+02 -3.729319777715761e+01 -5.000000000000000e+00
3.035766882622786e+02 -8.134312846079223e+01 -5.000000000000000e+00
3.035766882622786e+02 -8.134312846079223e+01 5.000000000000000e+00
2.759788075111623e+02 -7.394829860072021e+01 5.000000000000000e+00
2.759788075111623e+02 -7.394829860072022e+01 -5.000000000000000e+00
2.832699603925172e+02 -3.729319777715761e+01 -5.000000000000000e+00
2.832699603925173e+02 -3.729319777715760e+01 5.000000000000000e+00
2.549429643532654e+02 -3.356387799944184e+01 5.000000000000000e+00
2.549429643532656e+02 -3.356387799944184e+01 -5.000000000000000e+00
2.759788075111623e+02 -7.394829860072022e+01 -5.000000000000000e+00
2.759788075111623e+02 -7.394829860072021e+01 5.000000000000000e+00
2.483809267600461e+02 -6.655346874064817e+01 5.000000000000000e+00
2.483809267600461e+02 -6.655346874064817e+01 -5.000000000000000e+00
2.549429643532656e+02 -3.356387799944184e+01 -5.000000000000000e+00
2.549429643532654e+02 -3.356387799944184e+01 5.000000000000000e+00
2.266159683140137e+02 -2.983455822172607e+01 5.000000000000000e+00
2.266159683140138e+02 -2.983455822172609e+01 -5.000000000000000e+00
2.483809267600461e+02 -6.655346874064817e+01 -5.000000000000000e+00
2.483809267600461e+02 -6.655346874064817e+01 5.000000000000000e+00
2.207830460089299e+02 -5.915863888057616e+01 5.000000000000000e+00
2.207830460089299e+02 -5.915863888057613e+01 -5.000000000000000e+00
2.266159683140138e+02 -2.983455822172609e+01 -5.000000000000000e+00
2.266159683140137e+02 -2.983455822172607e+01 5.000000000000000e+00
1.982889722747620e+02 -2.610523844401031e+01 5.000000000000000e+00
1.982889722747620e+02 -2.610523844401034e+01 -5.000000000000000e+00
2.207830460089299e+02 -5.915863888057613e+01 -5.000000000000000e+00
2.207830460089299e+02 -5.915863888057616e+01 5.000000000000000e+00
1.931851652578137e+02 -5.176380902050415e+01 5.000000000000000e+00
1.931851652578137e+02 -5.176380902050413e+01 -5.000000000000000e+00
3.863703305156273e+02 -1.035276180410083e+02 -5.000000000000000e+00
3.863703305156273e+02 -1.035276180410083e+02 5.000000000000000e+00
3.587724497645111e+02 -9.613278818093622e+01 5.000000000000000e+00
3.587724497645111e+02 -9.613278818093627e+01 -5.000000000000000e+00
3.695518130045147e+02 -1.530733729460359e+02 -5.000000000000000e+00
3.695518130045147e+02 -1.530733729460358e+02 5.000000000000000e+00
3.431552549327637e+02 -1.421395605927476e+02 5.000000000000000e+00
3.431552549327638e+02 -1.421395605927476e+02 -5.000000000000000e+00
3.587724497645111e+02 -9.613278818093627e+01 -5.000000000000000e+00
3.587724497645111e+02 -9.613278818093622e+01 5.000000000000000e+00
3.311745690133948e+02 -8.873795832086424e+01 5.000000000000000e+00
3.311745690133949e+02 -8.873795832086424e+01 -5.000000000000000e+00
3.431552549327638e+02 -1.421395605927476e+02 -5.000000000000000e+00
3.431552549327637e+02 -1.421395605927476e+02 5.000000000000000e+00
3.167586968610125e+02 -1.312057482394593e+02 5.000000000000000e+00
3.167586968610127e+02 -1.312057482394593e+02 -5.000000000000000e+00
3.311745690133949e+02 -8.873795832086424e+01 -5.000000000000000e+00
3.311745690133948e+02 -8.873795832086424e+01 5.000000000000000e+00
3.035766882622786e+02 -8.134312846079223e+01 5.000000000000000e+00
3.035766882622786e+02 -8.134312846079223e+01 -5.000000000000000e+00
3.167586968610127e+02 -1.312057482394593e+02 -5.000000000000000e+00
3.167586968610125e+02 -1.312057482394593e+02 5.000000000000000e+00
2.903621387892615e+02 -1.202719358861710e+02 5.000000000000000e+00
2.903621387892615e+02 -1.202719358861710e+02 -5.000000000000000e+00
3.035766882622786e+02 -8.134312846079223e+01 -5.000000000000000e+00
3.035766882622786e+02 -8.134312846079223e+01 5.000000000000000e+00
2.759788075111623e+02 -7.394829860072021e+01 5.000000000000000e+00
2.759788075111623e+02 -7.394829860072022e+01 -5.000000000000000e+00
2.903621387892615e+02 -1.202719358861710e+02 -5.000000000000000e+00
[...]
  <PointData>
        <DataArray type="Float64" Name="accumulated_plastic_strain" format="ascii">
3.916589879292819e-02
3.915773949327748e-02
2.451254698290809e-02
2.452011145178375e-02
1.964886259782619e-02
1.963947950652089e-02
1.177537300176330e-02
1.178050199874422e-02
2.452011145178375e-02
2.451254698290809e-02
3.040069073677224e-02
3.040937205352955e-02
1.178050199874422e-02
1.177537300176330e-02
1.427061926610029e-02
1.427156354756199e-02
3.040937205352955e-02
3.040069073677224e-02
3.580377458052213e-02
3.581406691863603e-02
1.427156354756199e-02
1.427061926610029e-02
1.686461157989742e-02
1.686005231444720e-02
3.581406691863603e-02
3.580377458052213e-02
4.077297858011569e-02
4.079120554562329e-02
1.686005231444720e-02
1.686461157989742e-02
1.954750819533006e-02
1.953812587822119e-02
4.079120554562329e-02
4.077297858011569e-02
4.616645693388666e-02
4.609306184056636e-02
1.953812587822119e-02
1.954750819533006e-02
2.271264346174903e-02
2.264991786566580e-02
4.609306184056636e-02
4.616645693388666e-02
5.520075796448887e-02
5.535777547608248e-02
2.264991786566580e-02
2.271264346174903e-02
2.814067828673666e-02
2.818464156021811e-02
5.535777547608248e-02
5.520075796448887e-02
1.345163194497475e-01
1.351217837780155e-01
2.818464156021811e-02
2.814067828673666e-02
6.986802094331392e-02
7.017220662718171e-02
1.964886259782619e-02
1.963947950652089e-02
1.177537300176330e-02
1.178050199874422e-02
1.874746021360746e-02
1.873911976024576e-02
1.021841935190076e-02
1.022030026361411e-02
1.178050199874422e-02
1.177537300176330e-02
1.427061926610029e-02
1.427156354756199e-02
1.022030026361411e-02
1.021841935190076e-02
1.165870521398799e-02
1.165272390090362e-02
1.427156354756199e-02
1.427061926610029e-02
1.686461157989742e-02
1.686005231444720e-02
1.165272390090362e-02
1.165870521398799e-02
1.380774189707177e-02
1.379181845938250e-02
1.686005231444720e-02
1.686461157989742e-02
1.954750819533006e-02
1.953812587822119e-02
1.379181845938250e-02
1.380774189707177e-02
1.679231700551189e-02
1.676121830992252e-02
1.953812587822119e-02
1.954750819533006e-02
2.271264346174903e-02
2.264991786566580e-02
1.676121830992252e-02
1.679231700551189e-02
2.120818692484639e-02
2.110382584843903e-02
2.264991786566580e-02
2.271264346174903e-02
2.814067828673666e-02
2.818464156021811e-02
2.110382584843903e-02
2.120818692484639e-02
2.865288944421514e-02
2.865587794906528e-02
2.818464156021811e-02
2.814067828673666e-02
6.986802094331392e-02
7.017220662718171e-02
2.865587794906528e-02
2.865288944421514e-02
7.348062477843856e-02
7.383682986780127e-02
1.874746021360746e-02
1.873911976024576e-02
1.021841935190076e-02
1.022030026361411e-02
1.604581647379488e-02
1.604920907216717e-02
8.225092357208690e-03
8.221299840964506e-03
1.022030026361411e-02
1.021841935190076e-02
1.165870521398799e-02
1.165272390090362e-02
8.221299840964506e-03
8.225092357208690e-03
8.949281539872777e-03
8.941526509781358e-03
1.165272390090362e-02
1.165870521398799e-02
1.380774189707177e-02
1.379181845938250e-02
8.941526509781358e-03
8.949281539872777e-03
1.063148281044685e-02
1.061637884722569e-02
1.379181845938250e-02
1.380774189707177e-02
1.679231700551189e-02
1.676121830992252e-02
1.061637884722569e-02
1.063148281044685e-02
1.375061091460037e-02
1.371747846503749e-02
1.676121830992252e-02
1.679231700551189e-02
2.120818692484639e-02
2.110382584843903e-02
1.371747846503749e-02
1.375061091460037e-02
1.928613121868360e-02
1.915692675334545e-02
2.110382584843903e-02
2.120818692484639e-02
2.865288944421514e-02
2.865587794906528e-02
1.915692675334545e-02
1.928613121868360e-02
2.876211845372386e-02
2.875090053605259e-02
2.865587794906528e-02
2.865288944421514e-02
7.348062477843856e-02
7.383682986780127e-02
2.875090053605259e-02
2.876211845372386e-02
7.665751270138155e-02
7.708463567279988e-02
1.604581647379488e-02
1.604920907216717e-02
8.225092357208690e-03
8.221299840964506e-03
1.290856172097136e-02
1.292057235615133e-02
6.625601782687315e-03
6.619889556932197e-03
8.221299840964506e-03
8.225092357208690e-03
8.949281539872777e-03
8.941526509781358e-03
6.619889556932197e-03
6.625601782687315e-03
7.209997024446802e-03
7.203685679732699e-03
8.941526509781358e-03
8.949281539872777e-03
1.063148281044685e-02
1.061637884722569e-02
7.203685679732699e-03
7.209997024446802e-03
8.626031538009633e-03
8.614257914275860e-03
1.061637884722569e-02
1.063148281044685e-02
1.375061091460037e-02
1.371747846503749e-02
8.614257914275860e-03
8.626031538009633e-03
1.153203791577777e-02
1.150005921526282e-02
1.371747846503749e-02
1.375061091460037e-02
1.928613121868360e-02
1.915692675334545e-02
1.150005921526282e-02
1.153203791577777e-02
1.738727646266347e-02
1.723224516408123e-02
1.915692675334545e-02
1.928613121868360e-02
2.876211845372386e-02
2.875090053605259e-02
1.723224516408123e-02
1.738727646266347e-02
2.842494482351101e-02
2.839526552804447e-02
2.875090053605259e-02
2.876211845372386e-02
7.665751270138155e-02
7.708463567279988e-02
2.839526552804447e-02
2.842494482351101e-02
7.947100833759410e-02
7.996137266504627e-02
1.290856172097136e-02
1.292057235615133e-02
6.625601782687315e-03
6.619889556932197e-03
1.063242587880593e-02
1.064590864936506e-02
5.655734729436264e-03
5.650343153045829e-03
6.619889556932197e-03
6.625601782687315e-03
7.209997024446802e-03
7.203685679732699e-03
5.650343153045829e-03
5.655734729436264e-03
6.392492361594499e-03
6.386801954488275e-03
7.203685679732699e-03
7.209997024446802e-03
8.626031538009633e-03
8.614257914275860e-03
6.386801954488275e-03
6.392492361594499e-03
7.783073591233877e-03
7.772882951842466e-03
8.614257914275860e-03
8.626031538009633e-03
1.153203791577777e-02
1.150005921526282e-02
7.772882951842466e-03
7.783073591233877e-03
1.037802415814220e-02
1.034733449485342e-02
1.150005921526282e-02
1.153203791577777e-02
1.738727646266347e-02
1.723224516408123e-02
1.034733449485342e-02
1.037802415814220e-02
1.597908728626110e-02
1.580448365972227e-02
1.723224516408123e-02
1.738727646266347e-02
2.842494482351101e-02
2.839526552804447e-02
1.580448365972227e-02
1.597908728626110e-02
2.792704431634431e-02
2.788497985362467e-02
2.839526552804447e-02
2.842494482351101e-02
7.947100833759410e-02
7.996137266504627e-02
2.788497985362467e-02
2.792704431634431e-02
8.155484992672149e-02
8.209346404612229e-02
1.063242587880593e-02
1.064590864936506e-02
5.655734729436264e-03
5.650343153045829e-03
1.960511553347982e-02
1.963269154377785e-02
1.065289561509980e-02
1.064235098790193e-02
5.650343153045829e-03
5.655734729436264e-03
6.392492361594499e-03
6.386801954488275e-03
1.064235098790193e-02
1.065289561509980e-02
1.231620915539002e-02
1.230538910091327e-02
6.386801954488275e-03
6.392492361594499e-03
7.783073591233877e-03
7.772882951842466e-03
1.230538910091327e-02
1.231620915539002e-02
1.516237334210096e-02
1.514371849501357e-02
7.772882951842466e-03
7.783073591233877e-03
1.037802415814220e-02
1.034733449485342e-02
1.514371849501357e-02
1.516237334210096e-02
2.011291601255706e-02
2.005419824287101e-02
1.034733449485342e-02
1.037802415814220e-02
1.597908728626110e-02
1.580448365972227e-02
2.005419824287101e-02
2.011291601255706e-02
3.094499970875584e-02
3.058423814089986e-02
1.580448365972227e-02
1.597908728626110e-02
2.792704431634431e-02
2.788497985362467e-02
3.058423814089986e-02
3.094499970875584e-02
5.541587680655841e-02
5.532601891306040e-02
2.788497985362467e-02
2.792704431634431e-02
8.155484992672149e-02
8.209346404612229e-02
5.532601891306040e-02
5.541587680655841e-02
1.647734849641272e-01
1.658859287286961e-01
        </DataArray>
        <DataArray type="Float64" Name="displacement" NumberOfComponents="3" format="ascii">
-1.112491452372920e+01 0.000000000000000e+00 0.000000000000000e+00
-1.111974697201850e+01 0.000000000000000e+00 2.284528704751697e-01
-1.187786816525406e+01 0.000000000000000e+00 2.599541377146222e-01
-1.188412684593773e+01 0.000000000000000e+00 0.000000000000000e+00
-1.144589596096049e+01 2.270844523910738e+00 0.000000000000000e+00
-1.144283929833165e+01 2.270595675226614e+00 2.340748557825945e-01
-1.211930052241433e+01 2.684416567255228e+00 2.513414287214895e-01
-1.212196407225499e+01 2.687299725889154e+00 0.000000000000000e+00
-1.188412684593773e+01 0.000000000000000e+00 0.000000000000000e+00
-1.187786816525406e+01 0.000000000000000e+00 2.599541377146222e-01
-1.295937857884573e+01 0.000000000000000e+00 2.928367563070894e-01
-1.296248260622215e+01 0.000000000000000e+00 0.000000000000000e+00
-1.212196407225499e+01 2.687299725889154e+00 0.000000000000000e+00
-1.211930052241433e+01 2.684416567255228e+00 2.513414287214895e-01
-1.308035599003426e+01 2.986488312638519e+00 2.647952299334712e-01
-1.308027299354409e+01 2.993063462181245e+00 0.000000000000000e+00
-1.296248260622215e+01 0.000000000000000e+00 0.000000000000000e+00
-1.295937857884573e+01 0.000000000000000e+00 2.928367563070894e-01
-1.437874902847243e+01 0.000000000000000e+00 2.849088855723252e-01
-1.437431088839704e+01 0.000000000000000e+00 0.000000000000000e+00
-1.308027299354409e+01 2.993063462181245e+00 0.000000000000000e+00
-1.308035599003426e+01 2.986488312638519e+00 2.647952299334712e-01
-1.436789135695446e+01 3.140178133078311e+00 2.539403235916251e-01
-1.436249024473956e+01 3.147063791170675e+00 0.000000000000000e+00
-1.437431088839704e+01 0.000000000000000e+00 0.000000000000000e+00
-1.437874902847243e+01 0.000000000000000e+00 2.849088855723252e-01
-1.616061044565175e+01 0.000000000000000e+00 2.445444256277737e-01
-1.615157417256462e+01 0.000000000000000e+00 0.000000000000000e+00
-1.436249024473956e+01 3.147063791170675e+00 0.000000000000000e+00
-1.436789135695446e+01 3.140178133078311e+00 2.539403235916251e-01
-1.603428894371750e+01 3.137312521893337e+00 2.124085224509875e-01
-1.602449032039398e+01 3.144065150604592e+00 0.000000000000000e+00
-1.615157417256462e+01 0.000000000000000e+00 0.000000000000000e+00
-1.616061044565175e+01 0.000000000000000e+00 2.445444256277737e-01
-1.833165054865427e+01 0.000000000000000e+00 1.732009050552389e-01
-1.831670929932445e+01 0.000000000000000e+00 0.000000000000000e+00
-1.602449032039398e+01 3.144065150604592e+00 0.000000000000000e+00
-1.603428894371750e+01 3.137312521893337e+00 2.124085224509875e-01
-1.812402996240070e+01 3.029152243764581e+00 1.444039658840601e-01
-1.810905150600952e+01 3.033479698089491e+00 0.000000000000000e+00
-1.831670929932445e+01 0.000000000000000e+00 0.000000000000000e+00
-1.833165054865427e+01 0.000000000000000e+00 1.732009050552389e-01
-2.108340052735746e+01 0.000000000000000e+00 2.404358684191614e-02
-2.104374258405431e+01 0.000000000000000e+00 0.000000000000000e+00
-1.810905150600952e+01 3.033479698089491e+00 0.000000000000000e+00
-1.812402996240070e+01 3.029152243764581e+00 1.444039658840601e-01
-2.083542880516305e+01 2.946950216065242e+00 -7.201235189003128e-03
-2.079358804873770e+01 2.953551516744061e+00 0.000000000000000e+00
-2.104374258405431e+01 0.000000000000000e+00 0.000000000000000e+00
-2.108340052735746e+01 0.000000000000000e+00 2.404358684191614e-02
-2.500000000000000e+01 0.000000000000000e+00 -2.261579169916874e-01
-2.500000000000000e+01 0.000000000000000e+00 0.000000000000000e+00
-2.079358804873770e+01 2.953551516744061e+00 0.000000000000000e+00
-2.083542880516305e+01 2.946950216065242e+00 -7.201235189003128e-03
-2.478612153434526e+01 3.263154805501290e+00 -2.644030101168240e-01
-2.478612153434526e+01 3.263154805501293e+00 0.000000000000000e+00
-1.144589596096049e+01 2.270844523910738e+00 0.000000000000000e+00
-1.144283929833165e+01 2.270595675226614e+00 2.340748557825945e-01
-1.211930052241433e+01 2.684416567255228e+00 2.513414287214895e-01
-1.212196407225499e+01 2.687299725889154e+00 0.000000000000000e+00
-1.200093219813683e+01 4.660977043226755e+00 0.000000000000000e+00
-1.200288956163590e+01 4.659084505467020e+00 2.278046851620934e-01
-1.249390879774146e+01 5.180266165492264e+00 2.180242875644452e-01
-1.249057025163922e+01 5.183875905042856e+00 0.000000000000000e+00
-1.212196407225499e+01 2.687299725889154e+00 0.000000000000000e+00
-1.211930052241433e+01 2.684416567255228e+00 2.513414287214895e-01
-1.308035599003426e+01 2.986488312638519e+00 2.647952299334712e-01
-1.308027299354409e+01 2.993063462181245e+00 0.000000000000000e+00
-1.249057025163922e+01 5.183875905042856e+00 0.000000000000000e+00
-1.249390879774146e+01 5.180266165492264e+00 2.180242875644452e-01
-1.317338898585948e+01 5.574521484517164e+00 2.032037357009316e-01
-1.316956133533801e+01 5.580468854864412e+00 0.000000000000000e+00
-1.308027299354409e+01 2.993063462181245e+00 0.000000000000000e+00
-1.308035599003426e+01 2.986488312638519e+00 2.647952299334712e-01
-1.436789135695446e+01 3.140178133078311e+00 2.539403235916251e-01
-1.436249024473956e+01 3.147063791170675e+00 0.000000000000000e+00
-1.316956133533801e+01 5.580468854864412e+00 0.000000000000000e+00
-1.317338898585948e+01 5.574521484517164e+00 2.032037357009316e-01
-1.413311195189892e+01 5.794950737751452e+00 1.915504374344837e-01
-1.412806480723649e+01 5.801032758882143e+00 0.000000000000000e+00
-1.436249024473956e+01 3.147063791170675e+00 0.000000000000000e+00
-1.436789135695446e+01 3.140178133078311e+00 2.539403235916251e-01
-1.603428894371750e+01 3.137312521893337e+00 2.124085224509875e-01
-1.602449032039398e+01 3.144065150604592e+00 0.000000000000000e+00
-1.412806480723649e+01 5.801032758882143e+00 0.000000000000000e+00
-1.413311195189892e+01 5.794950737751452e+00 1.915504374344837e-01
-1.548806538806194e+01 5.824605701644102e+00 1.596368346172376e-01
-1.548026230901108e+01 5.828999630721495e+00 0.000000000000000e+00
-1.602449032039398e+01 3.144065150604592e+00 0.000000000000000e+00
-1.603428894371750e+01 3.137312521893337e+00 2.124085224509875e-01
-1.812402996240070e+01 3.029152243764581e+00 1.444039658840601e-01
-1.810905150600952e+01 3.033479698089491e+00 0.000000000000000e+00
-1.548026230901108e+01 5.828999630721495e+00 0.000000000000000e+00
-1.548806538806194e+01 5.824605701644102e+00 1.596368346172376e-01
-1.736846588204214e+01 5.720476642065146e+00 1.093860126554485e-01
-1.735528850602751e+01 5.720622356371329e+00 0.000000000000000e+00
-1.810905150600952e+01 3.033479698089491e+00 0.000000000000000e+00
-1.812402996240070e+01 3.029152243764581e+00 1.444039658840601e-01
-2.083542880516305e+01 2.946950216065242e+00 -7.201235189003128e-03
-2.079358804873770e+01 2.953551516744061e+00 0.000000000000000e+00
-1.735528850602751e+01 5.720622356371329e+00 0.000000000000000e+00
-1.736846588204214e+01 5.720476642065146e+00 1.093860126554485e-01
-2.006888984714645e+01 5.725110838408284e+00 -5.369610554222416e-02
-2.002119660390098e+01 5.725562182658426e+00 0.000000000000000e+00
-2.079358804873770e+01 2.953551516744061e+00 0.000000000000000e+00
-2.083542880516305e+01 2.946950216065242e+00 -7.201235189003128e-03
-2.478612153434526e+01 3.263154805501290e+00 -2.644030101168240e-01
-2.478612153434526e+01 3.263154805501293e+00 0.000000000000000e+00
-2.002119660390098e+01 5.725562182658426e+00 0.000000000000000e+00
-2.006888984714645e+01 5.725110838408284e+00 -5.369610554222416e-02
-2.414814565722671e+01 6.470476127563020e+00 -3.491049478740451e-01
-2.414814565722671e+01 6.470476127563017e+00 0.000000000000000e+00
-1.200093219813683e+01 4.660977043226755e+00 0.000000000000000e+00
-1.200288956163590e+01 4.659084505467020e+00 2.278046851620934e-01
-1.249390879774146e+01 5.180266165492264e+00 2.180242875644452e-01
-1.249057025163922e+01 5.183875905042856e+00 0.000000000000000e+00
-1.219957534524746e+01 6.851735381538719e+00 0.000000000000000e+00
-1.220331508449200e+01 6.849332858084076e+00 1.956324524223214e-01
-1.254778458662131e+01 7.237472493804331e+00 1.796887199468430e-01
-1.254322740221049e+01 7.239479451826196e+00 0.000000000000000e+00
-1.249057025163922e+01 5.183875905042856e+00 0.000000000000000e+00
-1.249390879774146e+01 5.180266165492264e+00 2.180242875644452e-01
-1.317338898585948e+01 5.574521484517164e+00 2.032037357009316e-01
-1.316956133533801e+01 5.580468854864412e+00 0.000000000000000e+00
-1.254322740221049e+01 7.239479451826196e+00 0.000000000000000e+00
-1.254778458662131e+01 7.237472493804331e+00 1.796887199468430e-01
-1.301417525484952e+01 7.557240408413512e+00 1.596380215620813e-01
-1.301038982434276e+01 7.559538266345156e+00 0.000000000000000e+00
-1.316956133533801e+01 5.580468854864412e+00 0.000000000000000e+00
-1.317338898585948e+01 5.574521484517164e+00 2.032037357009316e-01
-1.413311195189892e+01 5.794950737751452e+00 1.915504374344837e-01
-1.412806480723649e+01 5.801032758882143e+00 0.000000000000000e+00
-1.301038982434276e+01 7.559538266345156e+00 0.000000000000000e+00
-1.301417525484952e+01 7.557240408413512e+00 1.596380215620813e-01
-1.369050911575711e+01 7.786233988202169e+00 1.502889774610805e-01
-1.368712536372267e+01 7.788758108501251e+00 0.000000000000000e+00
-1.412806480723649e+01 5.801032758882143e+00 0.000000000000000e+00
-1.413311195189892e+01 5.794950737751452e+00 1.915504374344837e-01
-1.548806538806194e+01 5.824605701644102e+00 1.596368346172376e-01
-1.548026230901108e+01 5.828999630721495e+00 0.000000000000000e+00
-1.368712536372267e+01 7.788758108501251e+00 0.000000000000000e+00
-1.369050911575711e+01 7.786233988202169e+00 1.502889774610805e-01
-1.472567243041830e+01 7.914207664743078e+00 1.301394647973371e-01
-1.472064120875675e+01 7.915733325780095e+00 0.000000000000000e+00
-1.548026230901108e+01 5.828999630721495e+00 0.000000000000000e+00
-1.548806538806194e+01 5.824605701644102e+00 1.596368346172376e-01
-1.736846588204214e+01 5.720476642065146e+00 1.093860126554485e-01
-1.735528850602751e+01 5.720622356371329e+00 0.000000000000000e+00
-1.472064120875675e+01 7.915733325780095e+00 0.000000000000000e+00
-1.472567243041830e+01 7.914207664743078e+00 1.301394647973371e-01
-1.633975121315259e+01 7.997449124743997e+00 9.118363746921780e-02
-1.632717901255860e+01 7.994450789965173e+00 0.000000000000000e+00
-1.735528850602751e+01 5.720622356371329e+00 0.000000000000000e+00
-1.736846588204214e+01 5.720476642065146e+00 1.093860126554485e-01
-2.006888984714645e+01 5.725110838408284e+00 -5.369610554222416e-02
-2.002119660390098e+01 5.725562182658426e+00 0.000000000000000e+00
-1.632717901255860e+01 7.994450789965173e+00 0.000000000000000e+00
-1.633975121315259e+01 7.997449124743997e+00 9.118363746921780e-02
-1.894384623548983e+01 8.302666578286317e+00 -9.829849475479836e-02
-1.888909499102573e+01 8.293956113160998e+00 0.000000000000000e+00
-2.002119660390098e+01 5.725562182658426e+00 0.000000000000000e+00
-2.006888984714645e+01 5.725110838408284e+00 -5.369610554222416e-02
-2.414814565722671e+01 6.470476127563020e+00 -3.491049478740451e-01
-2.414814565722671e+01 6.470476127563017e+00 0.000000000000000e+00
-1.888909499102573e+01 8.293956113160998e+00 0.000000000000000e+00
-1.894384623548983e+01 8.302666578286317e+00 -9.829849475479836e-02
-2.309698831278217e+01 9.567085809127244e+00 -4.499723376067716e-01
-2.309698831278217e+01 9.567085809127237e+00 0.000000000000000e+00
-1.219957534524746e+01 6.851735381538719e+00 0.000000000000000e+00
-1.220331508449200e+01 6.849332858084076e+00 1.956324524223214e-01
-1.254778458662131e+01 7.237472493804331e+00 1.796887199468430e-01
-1.254322740221049e+01 7.239479451826196e+00 0.000000000000000e+00
-1.193485254758222e+01 8.561115504976367e+00 0.000000000000000e+00
-1.193750261120977e+01 8.559331408135991e+00 1.619695499795359e-01
-1.221437156431590e+01 8.808742759106838e+00 1.528215067016736e-01
-1.221133185910977e+01 8.809583963237987e+00 0.000000000000000e+00
-1.254322740221049e+01 7.239479451826196e+00 0.000000000000000e+00
-1.254778458662131e+01 7.237472493804331e+00 1.796887199468430e-01
-1.301417525484952e+01 7.557240408413512e+00 1.596380215620813e-01
-1.301038982434276e+01 7.559538266345156e+00 0.000000000000000e+00
-1.221133185910977e+01 8.809583963237987e+00 0.000000000000000e+00
-1.221437156431590e+01 8.808742759106838e+00 1.528215067016736e-01
-1.258633982474786e+01 9.046789822584667e+00 1.390614124884061e-01
-1.258403733842832e+01 9.047090510897412e+00 0.000000000000000e+00