<?xml version="1.0" ?> 
<!-- 
# vtk DataFile Version 3.0
-->
<VTKFile type="UnstructuredGrid" version="0.1" compressor="vtkZLibDataCompressor" byte_order="LittleEndian">
  <UnstructuredGrid>
    <FieldData>
      <DataArray type="Float64" Name="TIME" NumberOfTuples="1" format="ascii">
1.000000000000000e+00 
      </DataArray>
    </FieldData>

    <Piece NumberOfPoints="336" NumberOfCells="42" >
      <Points>
        <DataArray type="Float64" NumberOfComponents="3" format="ascii">
4.000000000000000e+02 0.000000000000000e+00 -5.000000000000000e+00
4.000000000000000e+02 0.000000000000000e+00 5.000000000000000e+00
3.714285714285714e+02 0.000000000000000e+00 5.000000000000000e+00
3.714285714285714e+02 0.000000000000000e+00 -5.000000000000000e+00
3.965779445495241e+02 -5.221047688802063e+01 -5.000000000000000e+00
3.965779445495241e+02 -5.221047688802067e+01 5.000000000000000e+00
3.682509485102725e+02 -4.848115711030491e+01 5.000000000000000e+00
3.682509485102725e+02 -4.848115711030487e+01 -5.000000000000000e+00
3.714285714285714e+02 0.000000000000000e+00 -5.000000000000000e+00
3.714285714285714e+02 0.000000000000000e+00 5.000000000000000e+00
3.428571428571428e+02 0.000000000000000e+00 5.000000000000000e+00
3.428571428571429e+02 0.000000000000000e+00 -5.000000000000000e+00
3.682509485102725e+02 -4.848115711030487e+01 -5.000000000000000e+00
3.682509485102725e+02 -4.848115711030491e+01 5.000000000000000e+00
3.399239524710206e+02 -4.475183733258914e+01 5.000000000000000e+00
3.399239524710206e+02 -4.475183733258911e+01 -5.000000000000000e+00
3.428571428571429e+02 0.000000000000000e+00 -5.000000000000000e+00
3.428571428571428e+02 0.000000000000000e+00 5.000000000000000e+00
3.142857142857143e+02 0.000000000000000e+00 5.000000000000000e+00
3.142857142857143e+02 0.000000000000000e+00 -5.000000000000000e+00
3.399239524710206e+02 -4.475183733258911e+01 -5.000000000000000e+00
3.399239524710206e+02 -4.475183733258914e+01 5.000000000000000e+00
3.115969564317688e+02 -4.102251755487337e+01 5.000000000000000e+00
3.115969564317689e+02 -4.102251755487335e+01 -5.000000000000000e+00
3.142857142857143e+02 0.000000000000000e+00 -5.000000000000000e+00
3.142857142857143e+02 0.000000000000000e+00 5.000000000000000e+00
2.857142857142857e+02 0.000000000000000e+00 5.000000000000000e+00
2.857142857142857e+02 0.000000000000000e+00 -5.000000000000000e+00
3.115969564317689e+02 -4.102251755487335e+01 -5.000000000000000e+00
3.115969564317688e+02 -4.102251755487337e+01 5.000000000000000e+00
2.832699603925173e+02 -3.729319777715760e+01 5.000000000000000e+00
2.832699603925172e+02 -3.729319777715761e+01 -5.000000000000000e+00
2.857142857142857e+02 0.000000000000000e+00 -5.000000000000000e+00
2.857142857142857e+02 0.000000000000000e+00 5.000000000000000e+00
2.571428571428571e+02 0.000000000000000e+00 5.000000000000000e+00
2.571428571428572e+02 0.000000000000000e+00 -5.000000000000000e+00
2.832699603925172e+02 -3.729319777715761e+01 -5.000000000000000e+00
2.832699603925173e+02 -3.729319777715760e+01 5.000000000000000e+00
2.549429643532654e+02 -3.356387799944184e+01 5.000000000000000e+00
2.549429643532656e+02 -3.356387799944184e+01 -5.000000000000000e+00
2.571428571428572e+02 0.000000000000000e+00 -5.000000000000000e+00
2.571428571428571e+02 0.000000000000000e+00 5.000000000000000e+00
2.285714285714286e+02 0.000000000000000e+00 5.000000000000000e+00
2.285714285714286e+02 0.000000000000000e+00 -5.000000000000000e+00
2.549429643532656e+02 -3.356387799944184e+01 -5.000000000000000e+00
2.549429643532654e+02 -3.356387799944184e+01 5.000000000000000e+00
2.266159683140137e+02 -2.983455822172607e+01 5.000000000000000e+00
2.266159683140138e+02 -2.983455822172609e+01 -5.000000000000000e+00
2.285714285714286e+02 0.000000000000000e+00 -5.000000000000000e+00
2.285714285714286e+02 0.000000000000000e+00 5.000000000000000e+00
2.000000000000000e+02 0.000000000000000e+00 5.000000000000000e+00
2.000000000000000e+02 0.000000000000000e+00 -5.000000000000000e+00
2.266159683140138e+02 -2.983455822172609e+01 -5.000000000000000e+00
2.266159683140137e+02 -2.983455822172607e+01 5.000000000000000e+00
1.982889722747620e+02 -2.610523844401031e+01 5.000000000000000e+00
1.982889722747620e+02 -2.610523844401034e+01 -5.000000000000000e+00
3.965779445495241e+02 -5.221047688802063e+01 -5.000000000000000e+00
3.965779445495241e+02 -5.221047688802067e+01 5.000000000000000e+00
3.682509485102725e+02 -4.848115711030491e+01 5.000000000000000e+00
3.682509485102725e+02 -4.848115711030487e+01 -5.000000000000000e+00
3.863703305156273e+02 -1.035276180410083e+02 -5.000000000000000e+00
3.863703305156273e+02 -1.035276180410083e+02 5.000000000000000e+00
3.587724497645111e+02 -9.613278818093622e+01 5.000000000000000e+00
3.587724497645111e+02 -9.613278818093627e+01 -5.000000000000000e+00
3.682509485102725e+02 -4.848115711030487e+01 -5.000000000000000e+00
3.682509485102725e+02 -4.848115711030491e+01 5.000000000000000e+00
3.399239524710206e+02 -4.475183733258914e+01 5.000000000000000e+00
3.399239524710206e+02 -4.475183733258911e+01 -5.000000000000000e+00
3.587724497645111e+02 -9.613278818093627e+01 -5.000000000000000e+00
3.587724497645111e+02 -9.613278818093622e+01 5.000000000000000e+00
3.311745690133948e+02 -8.873795832086424e+01 5.000000000000000e+00
3.311745690133949e+02 -8.873795832086424e+01 -5.000000000000000e+00
3.399239524710206e+02 -4.475183733258911e+01 -5.000000000000000e+00
3.399239524710206e+02 -4.475183733258914e+01 5.000000000000000e+00
3.115969564317688e+02 -4.102251755487337e+01 5.000000000000000e+00
3.115969564317689e+02 -4.102251755487335e+01 -5.000000000000000e+00
3.311745690133949e+02 -8.873795832086424e+01 -5.000000000000000e+00
3.311745690133948e+02 -8.873795832086424e+01 5.000000000000000e+00
3.035766882622786e+02 -8.134312846079223e+01 5.000000000000000e+00
3.035766882622786e+02 -8.134312846079223e+01 -5.000000000000000e+00
3.115969564317689e+02 -4.102251755487335e+01 -5.000000000000000e+00
3.115969564317688e+02 -4.102251755487337e+01 5.000000000000000e+00
2.832699603925173e+02 -3.729319777715760e+01 5.000000000000000e+00
2.832699603925172e+02 -3.729319777715761e+01 -5.000000000000000e+00
3.035766882622786e+02 -8.134312846079223e+01 -5.000000000000000e+00
3.035766882622786e+02 -8.134312846079223e+01 5.000000000000000e+00
2.759788075111623e+02 -7.394829860072021e+01 5.000000000000000e+00
2.759788075111623e+02 -7.394829860072022e+01 -5.000000000000000e+00
2.832699603925172e+02 -3.729319777715761e+01 -5.000000000000000e+00
2.832699603925173e+02 -3.729319777715760e+01 5.000000000000000e+00
2.549429643532654e+02 -3.356387799944184e+01 5.000000000000000e+00
2.549429643532656e+02 -3.356387799944184e+01 -5.000000000000000e+00
2.759788075111623e+02 -7.394829860072022e+01 -5.000000000000000e+00
2.759788075111623e+02 -7.394829860072021e+01 5.000000000000000e+00
2.483809267600461e+02 -6.655346874064817e+01 5.000000000000000e+00
2.483809267600461e+02 -6.655346874064817e+01 -5.000000000000000e+00
2.549429643532656e+02 -3.356387799944184e+01 -5.000000000000000e+00
2.549429643532654e+02 -3.356387799944184e+01 5.000000000000000e+00
2.266159683140137e+02 -2.983455822172607e+01 5.000000000000000e+00
2.266159683140138e+02 -2.983455822172609e+01 -5.000000000000000e+00
2.483809267600461e+02 -6.655346874064817e+01 -5.000000000000000e+00
2.483809267600461e+02 -6.655346874064817e+01 5.000000000000000e+00
2.207830460089299e+02 -5.915863888057616e+01 5.000000000000000e+00
2.207830460089299e+02 -5.915863888057613e+01 -5.000000000000000e+00
2.266159683140138e+02 -2.983455822172609e+01 -5.000000000000000e+00
2.266159683140137e+02 -2.983455822172607e+01 5.000000000000000e+00
1.982889722747620e+02 -2.610523844401031e+01 5.000000000000000e+00
1.982889722747620e+02 -2.610523844401034e+01 -5.000000000000000e+00
2.207830460089299e+02 -5.915863888057613e+01 -5.000000000000000e+00
2.207830460089299e+02 -5.915863888057616e+01 5.000000000000000e+00
1.931851652578137e+02 -5.176380902050415e+01 5.000000000000000e+00
1.931851652578137e+02 -5.176380902050413e+01 -5.000000000000000e+00
3.863703305156273e+02 -1.035276180410083e+02 -5.000000000000000e+00
3.863703305156273e+02 -1.035276180410083e+02 5.000000000000000e+00
3.587724497645111e+02 -9.613278818093622e+01 5.000000000000000e+00
3.587724497645111e+02 -9.613278818093627e+01 -5.000000000000000e+00
3.695518130045147e+02 -1.530733729460359e+02 -5.000000000000000e+00
3.695518130045147e+02 -1.530733729460358e+02 5.000000000000000e+00
3.431552549327637e+02 -1.421395605927476e+02 5.000000000000000e+00
3.431552549327638e+02 -1.421395605927476e+02 -5.000000000000000e+00
3.587724497645111e+02 -9.613278818093627e+01 -5.000000000000000e+00
3.587724497645111e+02 -9.613278818093622e+01 5.000000000000000e+00
3.311745690133948e+02 -8.873795832086424e+01 5.000000000000000e+00
3.311745690133949e+02 -8.873795832086424e+01 -5.000000000000000e+00
3.431552549327638e+02 -1.421395605927476e+02 -5.000000000000000e+00
3.431552549327637e+02 -1.421395605927476e+02 5.000000000000000e+00
3.167586968610125e+02 -1.312057482394593e+02 5.000000000000000e+00
3.167586968610127e+02 -1.312057482394593e+02 -5.000000000000000e+00
3.311745690133949e+02 -8.873795832086424e+01 -5.000000000000000e+00
3.311745690133948e+02 -8.873795832086424e+01 5.000000000000000e+00
3.035766882622786e+02 -8.134312846079223e+01 5.000000000000000e+00
3.035766882622786e+02 -8.134312846079223e+01 -5.000000000000000e+00
3.167586968610127e+02 -1.312057482394593e+02 -5.000000000000000e+00
3.167586968610125e+02 -1.312057482394593e+02 5.000000000000000e+00
2.903621387892615e+02 -1.202719358861710e+02 5.000000000000000e+00
2.903621387892615e+02 -1.202719358861710e+02 -5.000000000000000e+00
3.035766882622786e+02 -8.134312846079223e+01 -5.000000000000000e+00
3.035766882622786e+02 -8.134312846079223e+01 5.000000000000000e+00
2.759788075111623e+02 -7.394829860072021e+01 5.000000000000000e+00
2.759788075111623e+02 -7.394829860072022e+01 -5.000000000000000e+00
2.903621387892615e+02 -1.202719358861710e+02 -5.000000000000000e+00
[...]
  <PointData>
        <DataArray type="Float64" Name="accumulated_plastic_strain" format="ascii">
7.202887330707686e-02
7.201170902045122e-02
4.466259298787556e-02
4.469045083632871e-02
3.551648174313129e-02
3.550226662382432e-02
2.116021055403870e-02
2.117089902829044e-02
4.469045083632871e-02
4.466259298787556e-02
5.416036833712359e-02
5.420350991022049e-02
2.117089902829044e-02
2.116021055403870e-02
2.563305476468652e-02
2.563317823944077e-02
5.420350991022049e-02
5.416036833712359e-02
6.312749866436732e-02
6.315423439240081e-02
2.563317823944077e-02
2.563305476468652e-02
3.048529071147696e-02
3.047231990044616e-02
6.315423439240081e-02
6.312749866436732e-02
7.349150459001097e-02
7.348053397066553e-02
3.047231990044616e-02
3.048529071147696e-02
3.615014923084492e-02
3.611203122970780e-02
7.348053397066553e-02
7.349150459001097e-02
9.090327228980509e-02
9.044887626374644e-02
3.611203122970780e-02
3.615014923084492e-02
4.535284231224928e-02
4.509804824802081e-02
9.044887626374644e-02
9.090327228980509e-02
1.305171417043395e-01
1.305541999008218e-01
4.509804824802081e-02
4.535284231224928e-02
6.587994544418972e-02
6.585911105525077e-02
1.305541999008218e-01
1.305171417043395e-01
3.627966767321941e-01
3.643874600739890e-01
6.585911105525077e-02
6.587994544418972e-02
1.837624185966062e-01
1.845410474582663e-01
3.551648174313129e-02
3.550226662382432e-02
2.116021055403870e-02
2.117089902829044e-02
3.362591056831066e-02
3.363203925347496e-02
1.794038565213903e-02
1.793044029854714e-02
2.117089902829044e-02
2.116021055403870e-02
2.563305476468652e-02
2.563317823944077e-02
1.793044029854714e-02
1.794038565213903e-02
2.073836652413077e-02
2.071164384279406e-02
2.563317823944077e-02
2.563305476468652e-02
3.048529071147696e-02
3.047231990044616e-02
2.071164384279406e-02
2.073836652413077e-02
2.570871288158210e-02
2.566348482115899e-02
3.047231990044616e-02
3.048529071147696e-02
3.615014923084492e-02
3.611203122970780e-02
2.566348482115899e-02
2.570871288158210e-02
3.291461713149774e-02
3.283330341073361e-02
3.611203122970780e-02
3.615014923084492e-02
4.535284231224928e-02
4.509804824802081e-02
3.283330341073361e-02
3.291461713149774e-02
4.431904766805061e-02
4.402051354287626e-02
4.509804824802081e-02
4.535284231224928e-02
6.587994544418972e-02
6.585911105525077e-02
4.402051354287626e-02
4.431904766805061e-02
6.668741981954349e-02
6.662523187077223e-02
6.585911105525077e-02
6.587994544418972e-02
1.837624185966062e-01
1.845410474582663e-01
6.662523187077223e-02
6.668741981954349e-02
1.869443766745713e-01
1.877449544525891e-01
3.362591056831066e-02
3.363203925347496e-02
1.794038565213903e-02
1.793044029854714e-02
3.138684262292104e-02
3.140503283660599e-02
1.619181894603991e-02
1.617887092128239e-02
1.793044029854714e-02
1.794038565213903e-02
2.073836652413077e-02
2.071164384279406e-02
1.617887092128239e-02
1.619181894603991e-02
1.788173085017983e-02
1.785977274148555e-02
2.071164384279406e-02
2.073836652413077e-02
2.570871288158210e-02
2.566348482115899e-02
1.785977274148555e-02
1.788173085017983e-02
2.186035509749541e-02
2.182063506322235e-02
2.566348482115899e-02
2.570871288158210e-02
3.291461713149774e-02
3.283330341073361e-02
2.182063506322235e-02
2.186035509749541e-02
2.916411924488093e-02
2.908462970229417e-02
3.283330341073361e-02
3.291461713149774e-02
4.431904766805061e-02
4.402051354287626e-02
2.908462970229417e-02
2.916411924488093e-02
4.213324472111679e-02
4.181769966992750e-02
4.402051354287626e-02
4.431904766805061e-02
6.668741981954349e-02
6.662523187077223e-02
4.181769966992750e-02
4.213324472111679e-02
6.674548476639158e-02
6.666483267408080e-02
6.662523187077223e-02
6.668741981954349e-02
1.869443766745713e-01
1.877449544525891e-01
6.666483267408080e-02
6.674548476639158e-02
1.896767855585274e-01
1.905040326836153e-01
3.138684262292104e-02
3.140503283660599e-02
1.619181894603991e-02
1.617887092128239e-02
2.974867127103970e-02
2.976284484641865e-02
1.584047888685864e-02
1.583590194862090e-02
1.617887092128239e-02
1.619181894603991e-02
1.788173085017983e-02
1.785977274148555e-02
1.583590194862090e-02
1.584047888685864e-02
1.758963991479169e-02
1.758082117676297e-02
1.785977274148555e-02
1.788173085017983e-02
2.186035509749541e-02
2.182063506322235e-02
1.758082117676297e-02
1.758963991479169e-02
2.080003905901757e-02
2.077624416288293e-02
2.182063506322235e-02
2.186035509749541e-02
2.916411924488093e-02
2.908462970229417e-02
2.077624416288293e-02
2.080003905901757e-02
2.690023418977797e-02
2.683139631312446e-02
2.908462970229417e-02
2.916411924488093e-02
4.213324472111679e-02
4.181769966992750e-02
2.683139631312446e-02
2.690023418977797e-02
3.943275342410592e-02
3.910053409723886e-02
4.181769966992750e-02
4.213324472111679e-02
6.674548476639158e-02
6.666483267408080e-02
3.910053409723886e-02
3.943275342410592e-02
6.565785248274184e-02
6.554843330571614e-02
6.666483267408080e-02
6.674548476639158e-02
1.896767855585274e-01
1.905040326836153e-01
6.554843330571614e-02
6.565785248274184e-02
1.920333099425325e-01
1.928791070014498e-01
2.974867127103970e-02
2.976284484641865e-02
1.584047888685864e-02
1.583590194862090e-02
2.846025519159977e-02
2.847292828136141e-02
1.566121883850582e-02
1.565713877799798e-02
1.583590194862090e-02
1.584047888685864e-02
1.758963991479169e-02
1.758082117676297e-02
1.565713877799798e-02
1.566121883850582e-02
1.793343603819670e-02
1.792413810765620e-02
1.758082117676297e-02
1.758963991479169e-02
2.080003905901757e-02
2.077624416288293e-02
1.792413810765620e-02
1.793343603819670e-02
2.127269243518110e-02
2.125374311478534e-02
2.077624416288293e-02
2.080003905901757e-02
2.690023418977797e-02
2.683139631312446e-02
2.125374311478534e-02
2.127269243518110e-02
2.653468617805627e-02
2.647591223815602e-02
2.683139631312446e-02
2.690023418977797e-02
3.943275342410592e-02
3.910053409723886e-02
2.647591223815602e-02
2.653468617805627e-02
3.755877614700512e-02
3.722404642932629e-02
3.910053409723886e-02
3.943275342410592e-02
6.565785248274184e-02
6.554843330571614e-02
3.722404642932629e-02
3.755877614700512e-02
6.405857790136678e-02
6.393839890079761e-02
6.554843330571614e-02
6.565785248274184e-02
1.920333099425325e-01
1.928791070014498e-01
6.393839890079761e-02
6.405857790136678e-02
1.934777026249495e-01
1.943371118867889e-01
2.846025519159977e-02
2.847292828136141e-02
1.566121883850582e-02
1.565713877799798e-02
5.583197882254446e-02
5.586296130955343e-02
3.109284401703927e-02
3.108221323868935e-02
1.565713877799798e-02
1.566121883850582e-02
1.793343603819670e-02
1.792413810765620e-02
3.108221323868935e-02
3.109284401703927e-02
3.609489578818634e-02
3.607466191588975e-02
1.792413810765620e-02
1.793343603819670e-02
2.127269243518110e-02
2.125374311478534e-02
3.607466191588975e-02
3.609489578818634e-02
4.320334173688296e-02
4.316898503235221e-02
2.125374311478534e-02
2.127269243518110e-02
2.653468617805627e-02
2.647591223815602e-02
4.316898503235221e-02
4.320334173688296e-02
5.340853077440845e-02
5.330372336338000e-02
2.647591223815602e-02
2.653468617805627e-02
3.755877614700512e-02
3.722404642932629e-02
5.330372336338000e-02
5.340853077440845e-02
7.398099977621661e-02
7.331629819664681e-02
3.722404642932629e-02
3.755877614700512e-02
6.405857790136678e-02
6.393839890079761e-02
7.331629819664681e-02
7.398099977621661e-02
1.266372954206566e-01
1.263981728401579e-01
6.393839890079761e-02
6.405857790136678e-02
1.934777026249495e-01
1.943371118867889e-01
1.263981728401579e-01
1.266372954206566e-01
3.880165034641568e-01
3.897407932948471e-01
        </DataArray>
        <DataArray type="Float64" Name="displacement" NumberOfComponents="3" format="ascii">
-2.154951146303893e+01 0.000000000000000e+00 0.000000000000000e+00
-2.154039118625760e+01 0.000000000000000e+00 3.927616773455538e-01
-2.283214439205846e+01 0.000000000000000e+00 4.452809870532253e-01
-2.284159872297959e+01 0.000000000000000e+00 0.000000000000000e+00
-2.214830655614996e+01 3.720955808758165e+00 0.000000000000000e+00
-2.214367965629322e+01 3.718434650687135e+00 3.886199298847892e-01
-2.324138697310286e+01 4.354766067261103e+00 4.157131665168820e-01
-2.324465628793058e+01 4.362663837234660e+00 0.000000000000000e+00
-2.284159872297959e+01 0.000000000000000e+00 0.000000000000000e+00
-2.283214439205846e+01 0.000000000000000e+00 4.452809870532253e-01
-2.463452334747669e+01 0.000000000000000e+00 4.868556298350926e-01
-2.463708936457431e+01 0.000000000000000e+00 0.000000000000000e+00
-2.324465628793058e+01 4.362663837234660e+00 0.000000000000000e+00
-2.324138697310286e+01 4.354766067261103e+00 4.157131665168820e-01
-2.481525662905660e+01 4.739595814054994e+00 4.349153131153233e-01
-2.481478236648146e+01 4.752944043939223e+00 0.000000000000000e+00
-2.463708936457431e+01 0.000000000000000e+00 0.000000000000000e+00
-2.463452334747669e+01 0.000000000000000e+00 4.868556298350926e-01
-2.693448600011542e+01 0.000000000000000e+00 4.576280420176140e-01
-2.692420009507859e+01 0.000000000000000e+00 0.000000000000000e+00
-2.481478236648146e+01 4.752944043939223e+00 0.000000000000000e+00
-2.481525662905660e+01 4.739595814054994e+00 4.349153131153233e-01
-2.692409535310894e+01 4.895430551003490e+00 4.183022075969354e-01
-2.691417924134999e+01 4.905493279033969e+00 0.000000000000000e+00
-2.692420009507859e+01 0.000000000000000e+00 0.000000000000000e+00
-2.693448600011542e+01 0.000000000000000e+00 4.576280420176140e-01
-2.983939999809920e+01 0.000000000000000e+00 3.734998459049880e-01
-2.982364054978605e+01 0.000000000000000e+00 0.000000000000000e+00
-2.691417924134999e+01 4.905493279033969e+00 0.000000000000000e+00
-2.692409535310894e+01 4.895430551003490e+00 4.183022075969354e-01
-2.968913923948305e+01 4.921858696691038e+00 3.346320396039352e-01
-2.967268665014549e+01 4.929428881975319e+00 0.000000000000000e+00
-2.982364054978605e+01 0.000000000000000e+00 0.000000000000000e+00
-2.983939999809920e+01 0.000000000000000e+00 3.734998459049880e-01
-3.360810538319755e+01 0.000000000000000e+00 2.399775977595984e-01
-3.357485762324762e+01 0.000000000000000e+00 0.000000000000000e+00
-2.967268665014549e+01 4.929428881975319e+00 0.000000000000000e+00
-2.968913923948305e+01 4.921858696691038e+00 3.346320396039352e-01
-3.334430710920058e+01 4.993981523236678e+00 2.101679095972984e-01
-3.331213109082223e+01 4.996262631012907e+00 0.000000000000000e+00
-3.357485762324762e+01 0.000000000000000e+00 0.000000000000000e+00
-3.360810538319755e+01 0.000000000000000e+00 2.399775977595984e-01
-3.931635479809279e+01 0.000000000000000e+00 -2.394804097707479e-01
-3.919384933187031e+01 0.000000000000000e+00 0.000000000000000e+00
-3.331213109082223e+01 4.996262631012907e+00 0.000000000000000e+00
-3.334430710920058e+01 4.993981523236678e+00 2.101679095972984e-01
-3.894026837861239e+01 5.354643117135714e+00 -2.649423327806100e-01
-3.881791458746610e+01 5.348564055516593e+00 0.000000000000000e+00
-3.919384933187031e+01 0.000000000000000e+00 0.000000000000000e+00
-3.931635479809279e+01 0.000000000000000e+00 -2.394804097707479e-01
-5.000000000000000e+01 0.000000000000000e+00 -1.282800421306659e+00
-5.000000000000000e+01 0.000000000000000e+00 0.000000000000000e+00
-3.881791458746610e+01 5.348564055516593e+00 0.000000000000000e+00
-3.894026837861239e+01 5.354643117135714e+00 -2.649423327806100e-01
-4.957224306869052e+01 6.526309611002580e+00 -1.303862912489515e+00
-4.957224306869052e+01 6.526309611002586e+00 0.000000000000000e+00
-2.214830655614996e+01 3.720955808758165e+00 0.000000000000000e+00
-2.214367965629322e+01 3.718434650687135e+00 3.886199298847892e-01
-2.324138697310286e+01 4.354766067261103e+00 4.157131665168820e-01
-2.324465628793058e+01 4.362663837234660e+00 0.000000000000000e+00
-2.293904563558547e+01 7.513136368946678e+00 0.000000000000000e+00
-2.294344773218289e+01 7.512178455231645e+00 3.722846504540839e-01
-2.372989077132480e+01 8.231258815166990e+00 3.480074965116771e-01
-2.372404719165416e+01 8.234932568898330e+00 0.000000000000000e+00
-2.324465628793058e+01 4.362663837234660e+00 0.000000000000000e+00
-2.324138697310286e+01 4.354766067261103e+00 4.157131665168820e-01
-2.481525662905660e+01 4.739595814054994e+00 4.349153131153233e-01
-2.481478236648146e+01 4.752944043939223e+00 0.000000000000000e+00
-2.372404719165416e+01 8.234932568898330e+00 0.000000000000000e+00
-2.372989077132480e+01 8.231258815166990e+00 3.480074965116771e-01
-2.480679985367442e+01 8.781708401117127e+00 3.260410276848173e-01
-2.480341966906116e+01 8.789942587028499e+00 0.000000000000000e+00
-2.481478236648146e+01 4.752944043939223e+00 0.000000000000000e+00
-2.481525662905660e+01 4.739595814054994e+00 4.349153131153233e-01
-2.692409535310894e+01 4.895430551003490e+00 4.183022075969354e-01
-2.691417924134999e+01 4.905493279033969e+00 0.000000000000000e+00
-2.480341966906116e+01 8.789942587028499e+00 0.000000000000000e+00
-2.480679985367442e+01 8.781708401117127e+00 3.260410276848173e-01
-2.639655649586261e+01 9.131787836683108e+00 3.287310388483665e-01
-2.639141561403543e+01 9.140445011657386e+00 0.000000000000000e+00
-2.691417924134999e+01 4.905493279033969e+00 0.000000000000000e+00
-2.692409535310894e+01 4.895430551003490e+00 4.183022075969354e-01
-2.968913923948305e+01 4.921858696691038e+00 3.346320396039352e-01
-2.967268665014549e+01 4.929428881975319e+00 0.000000000000000e+00
-2.639141561403543e+01 9.140445011657386e+00 0.000000000000000e+00
-2.639655649586261e+01 9.131787836683108e+00 3.287310388483665e-01
-2.875595683301976e+01 9.361948522727713e+00 2.776538567286407e-01
-2.874395275970523e+01 9.366063944650175e+00 0.000000000000000e+00
-2.967268665014549e+01 4.929428881975319e+00 0.000000000000000e+00
-2.968913923948305e+01 4.921858696691038e+00 3.346320396039352e-01
-3.334430710920058e+01 4.993981523236678e+00 2.101679095972984e-01
-3.331213109082223e+01 4.996262631012907e+00 0.000000000000000e+00
-2.874395275970523e+01 9.366063944650175e+00 0.000000000000000e+00
-2.875595683301976e+01 9.361948522727713e+00 2.776538567286407e-01
-3.219715228570553e+01 9.665795852957121e+00 1.803927641470408e-01
-3.216775473571029e+01 9.661824978991183e+00 0.000000000000000e+00
-3.331213109082223e+01 4.996262631012907e+00 0.000000000000000e+00
-3.334430710920058e+01 4.993981523236678e+00 2.101679095972984e-01
-3.894026837861239e+01 5.354643117135714e+00 -2.649423327806100e-01
-3.881791458746610e+01 5.348564055516593e+00 0.000000000000000e+00
-3.216775473571029e+01 9.661824978991183e+00 0.000000000000000e+00
-3.219715228570553e+01 9.665795852957121e+00 1.803927641470408e-01
-3.772892599291270e+01 1.051509542752442e+01 -2.982457471475203e-01
-3.760606615880766e+01 1.049301284875499e+01 0.000000000000000e+00
-3.881791458746610e+01 5.348564055516593e+00 0.000000000000000e+00
-3.894026837861239e+01 5.354643117135714e+00 -2.649423327806100e-01
-4.957224306869052e+01 6.526309611002580e+00 -1.303862912489515e+00
-4.957224306869052e+01 6.526309611002586e+00 0.000000000000000e+00
-3.760606615880766e+01 1.049301284875499e+01 0.000000000000000e+00
-3.772892599291270e+01 1.051509542752442e+01 -2.982457471475203e-01
-4.829629131445342e+01 1.294095225512604e+01 -1.357090274542006e+00
-4.829629131445342e+01 1.294095225512603e+01 0.000000000000000e+00
-2.293904563558547e+01 7.513136368946678e+00 0.000000000000000e+00
-2.294344773218289e+01 7.512178455231645e+00 3.722846504540839e-01
-2.372989077132480e+01 8.231258815166990e+00 3.480074965116771e-01
-2.372404719165416e+01 8.234932568898330e+00 0.000000000000000e+00
-2.288904282318466e+01 1.100445289243184e+01 0.000000000000000e+00
-2.289246789043550e+01 1.100515080430748e+01 3.591494927717667e-01
-2.357332527196804e+01 1.152092440077521e+01 3.369029980082323e-01
-2.356886350562855e+01 1.151804753187478e+01 0.000000000000000e+00
-2.372404719165416e+01 8.234932568898330e+00 0.000000000000000e+00
-2.372989077132480e+01 8.231258815166990e+00 3.480074965116771e-01
-2.480679985367442e+01 8.781708401117127e+00 3.260410276848173e-01
-2.480341966906116e+01 8.789942587028499e+00 0.000000000000000e+00
-2.356886350562855e+01 1.151804753187478e+01 0.000000000000000e+00
-2.357332527196804e+01 1.152092440077521e+01 3.369029980082323e-01
-2.443644112765908e+01 1.205000791932213e+01 3.058224198324344e-01
-2.443336225676174e+01 1.204728125756823e+01 0.000000000000000e+00
-2.480341966906116e+01 8.789942587028499e+00 0.000000000000000e+00
-2.480679985367442e+01 8.781708401117127e+00 3.260410276848173e-01
-2.639655649586261e+01 9.131787836683108e+00 3.287310388483665e-01
-2.639141561403543e+01 9.140445011657386e+00 0.000000000000000e+00
-2.443336225676174e+01 1.204728125756823e+01 0.000000000000000e+00
-2.443644112765908e+01 1.205000791932213e+01 3.058224198324344e-01
-2.564666421569104e+01 1.259220339098874e+01 2.920906810661562e-01
-2.564219063417566e+01 1.259163345873618e+01 0.000000000000000e+00
-2.639141561403543e+01 9.140445011657386e+00 0.000000000000000e+00
-2.639655649586261e+01 9.131787836683108e+00 3.287310388483665e-01
-2.875595683301976e+01 9.361948522727713e+00 2.776538567286407e-01
-2.874395275970523e+01 9.366063944650175e+00 0.000000000000000e+00
-2.564219063417566e+01 1.259163345873618e+01 0.000000000000000e+00
-2.564666421569104e+01 1.259220339098874e+01 2.920906810661562e-01
-2.752783580804858e+01 1.317389024307067e+01 2.468279891971480e-01
-2.751867907252661e+01 1.317357798574971e+01 0.000000000000000e+00
-2.874395275970523e+01 9.366063944650175e+00 0.000000000000000e+00
-2.875595683301976e+01 9.361948522727713e+00 2.776538567286407e-01
-3.219715228570553e+01 9.665795852957121e+00 1.803927641470408e-01
-3.216775473571029e+01 9.661824978991183e+00 0.000000000000000e+00
-2.751867907252661e+01 1.317357798574971e+01 0.000000000000000e+00
-2.752783580804858e+01 1.317389024307067e+01 2.468279891971480e-01
-3.055146319719047e+01 1.393448056232273e+01 1.604286326021233e-01
-3.052354046443633e+01 1.392566076432416e+01 0.000000000000000e+00
-3.216775473571029e+01 9.661824978991183e+00 0.000000000000000e+00
-3.219715228570553e+01 9.665795852957121e+00 1.803927641470408e-01
-3.772892599291270e+01 1.051509542752442e+01 -2.982457471475203e-01
-3.760606615880766e+01 1.049301284875499e+01 0.000000000000000e+00
-3.052354046443633e+01 1.392566076432416e+01 0.000000000000000e+00
-3.055146319719047e+01 1.393448056232273e+01 1.604286326021233e-01
-3.583423655380220e+01 1.541129819231838e+01 -3.325555211496727e-01
-3.571182287052272e+01 1.537326343825056e+01 0.000000000000000e+00
-3.760606615880766e+01 1.049301284875499e+01 0.000000000000000e+00
-3.772892599291270e+01 1.051509542752442e+01 -2.982457471475203e-01
-4.829629131445342e+01 1.294095225512604e+01 -1.357090274542006e+00
-4.829629131445342e+01 1.294095225512603e+01 0.000000000000000e+00
-3.571182287052272e+01 1.537326343825056e+01 0.000000000000000e+00
-3.583423655380220e+01 1.541129819231838e+01 -3.325555211496727e-01
-4.619397662556434e+01 1.913417161825449e+01 -1.421471367326363e+00
-4.619397662556435e+01 1.913417161825447e+01 0.000000000000000e+00
-2.288904282318466e+01 1.100445289243184e+01 0.000000000000000e+00
-2.289246789043550e+01 1.100515080430748e+01 3.591494927717667e-01
-2.357332527196804e+01 1.152092440077521e+01 3.369029980082323e-01
-2.356886350562855e+01 1.151804753187478e+01 0.000000000000000e+00
-2.198800337869761e+01 1.402559100319861e+01 0.000000000000000e+00
-2.198900260995601e+01 1.402522858161026e+01 3.516892509360741e-01
-2.265117483658189e+01 1.444343834473385e+01 3.442881327748683e-01
-2.264901461291842e+01 1.444170036566824e+01 0.000000000000000e+00
-2.356886350562855e+01 1.151804753187478e+01 0.000000000000000e+00
-2.357332527196804e+01 1.152092440077521e+01 3.369029980082323e-01
-2.443644112765908e+01 1.205000791932213e+01 3.058224198324344e-01
-2.443336225676174e+01 1.204728125756823e+01 0.000000000000000e+00
-2.264901461291842e+01 1.444170036566824e+01 0.000000000000000e+00
-2.265117483658189e+01 1.444343834473385e+01 3.442881327748683e-01
-2.349013230618670e+01 1.495454437983365e+01 3.217555866227783e-01
-2.348800758520471e+01 1.495096994458257e+01 0.000000000000000e+00