<?xml version="1.0" ?> 
<!-- 
# vtk DataFile Version 3.0
-->
<VTKFile type="UnstructuredGrid" version="0.1" compressor="vtkZLibDataCompressor" byte_order="LittleEndian">
  <UnstructuredGrid>
    <FieldData>
      <DataArray type="Float64" Name="TIME" NumberOfTuples="1" format="ascii">
9.999999999999999e-01 
      </DataArray>
    </FieldData>

    <Piece NumberOfPoints="8" NumberOfCells="1" >
      <Points>
        <DataArray type="Float64" NumberOfComponents="3" format="ascii">
-1.000000000000000e+00 -5.000000000000000e-01 5.000000000000000e-01
-1.000000000000000e+00 -5.000000000000000e-01 -5.000000000000000e-01
-1.000000000000000e+00 5.000000000000000e-01 -5.000000000000000e-01
-1.000000000000000e+00 5.000000000000000e-01 5.000000000000000e-01
0.000000000000000e+00 -5.000000000000000e-01 5.000000000000000e-01
0.000000000000000e+00 -5.000000000000000e-01 -5.000000000000000e-01
0.000000000000000e+00 5.000000000000000e-01 -5.000000000000000e-01
0.000000000000000e+00 5.000000000000000e-01 5.000000000000000e-01
        </DataArray>
      </Points>

      <Cells>
        <DataArray type="Int32" Name="connectivity" format="ascii">
0 1 2 3 4 5 6 7 
        </DataArray>
        <DataArray type="Int32" Name="offsets" format="ascii">
8 
        </DataArray>
        <DataArray type="UInt8" Name="types" format="ascii">
12 
        </DataArray>
      </Cells>

  <PointData>
        <DataArray type="Float64" Name="ale-displacement" NumberOfComponents="3" format="ascii">
0.000000000000000e+00 0.000000000000000e+00 0.000000000000000e+00
0.000000000000000e+00 0.000000000000000e+00 0.000000000000000e+00
0.000000000000000e+00 0.000000000000000e+00 0.000000000000000e+00
0.000000000000000e+00 0.000000000000000e+00 0.000000000000000e+00
4.242308104155987e-01 1.661309283410900e-01 -1.661309283410900e-01
4.242308104155986e-01 1.661309283410901e-01 1.661309283410899e-01
4.242308104155984e-01 -1.661309283410901e-01 1.661309283410900e-01
4.242308104155979e-01 -1.661309283410900e-01 -1.661309283410901e-01
        </DataArray>
        <DataArray type="Float64" Name="convec_velocity" NumberOfComponents="3" format="ascii">
0.000000000000000e+00 0.000000000000000e+00 0.000000000000000e+00
0.000000000000000e+00 0.000000000000000e+00 0.000000000000000e+00
0.000000000000000e+00 0.000000000000000e+00 0.000000000000000e+00
0.000000000000000e+00 0.000000000000000e+00 0.000000000000000e+00
0.000000000000000e+00 0.000000000000000e+00 0.000000000000000e+00
0.000000000000000e+00 0.000000000000000e+00 0.000000000000000e+00
0.000000000000000e+00 0.000000000000000e+00 0.000000000000000e+00
0.000000000000000e+00 0.000000000000000e+00 0.000000000000000e+00
        </DataArray>
        <DataArray type="Float64" Name="phi_1" format="ascii">
9.218141626194214e-01
9.218141626194212e-01
9.218141626194212e-01
9.218141626194212e-01
1.096257651202979e+00
1.096257651202979e+00
1.096257651202979e+00
1.096257651202979e+00
        </DataArray>
        <DataArray type="Float64" Name="phi_2" format="ascii">
1.000000000000000e+00
1.000000000000000e+00
1.000000000000000e+00
1.000000000000000e+00
-1.021511838580758e+00
-1.021511838580757e+00
-1.021511838580757e+00
-1.021511838580757e+00
        </DataArray>
        <DataArray type="Float64" Name="trueresidual" NumberOfComponents="2" format="ascii">
-4.594306705907325e-17 -2.591067205000001e-06
-6.977857419480926e-17 -2.591067205000001e-06
1.775381057445014e-17 -2.591067205000001e-06
-1.645276796746753e-16 -2.591067205000000e-06
2.591067204879549e-06 2.591067205000001e-06
2.591067205103505e-06 2.591067205000001e-06
2.591067205099371e-06 2.591067205000000e-06
2.591067205217549e-06 2.591067205000002e-06
        </DataArray>
  </PointData>
  <CellData>
        <DataArray type="Float64" Name="Owner" format="ascii">
0.000000000000000e+00
        </DataArray>
      </CellData>

    </Piece>
  </UnstructuredGrid>
</VTKFile>
