<?xml version="1.0" ?> 
<!-- 
# vtk DataFile Version 3.0
-->
<VTKFile type="UnstructuredGrid" version="0.1" compressor="vtkZLibDataCompressor" byte_order="LittleEndian">
  <UnstructuredGrid>
    <FieldData>
      <DataArray type="Float64" Name="TIME" NumberOfTuples="1" format="ascii">
0.000000000000000e+00 
      </DataArray>
    </FieldData>

    <Piece NumberOfPoints="324" NumberOfCells="12" >
      <Points>
        <DataArray type="Float64" NumberOfComponents="3" format="ascii">
-5.000000000000000e-01 -5.000000000000000e-01 -1.000000000000000e-01
0.000000000000000e+00 -5.000000000000000e-01 -1.000000000000000e-01
0.000000000000000e+00 -1.666666666665000e-01 -1.000000000000000e-01
-5.000000000000000e-01 -1.666666666665000e-01 -1.000000000000000e-01
-5.000000000000000e-01 -5.000000000000000e-01 1.500000000000000e-01
0.000000000000000e+00 -5.000000000000000e-01 1.500000000000000e-01
0.000000000000000e+00 -1.666666666665000e-01 1.500000000000000e-01
-5.000000000000000e-01 -1.666666666665000e-01 1.500000000000000e-01
-2.500000000000000e-01 -5.000000000000000e-01 -9.999999999999999e-02
0.000000000000000e+00 -3.333333333331250e-01 -1.000000000000000e-01
-2.500000000000000e-01 -1.666666666665000e-01 -1.000000000000000e-01
-5.000000000000000e-01 -3.333333333331250e-01 -9.999999999999999e-02
-2.500000000000000e-01 -5.000000000000000e-01 1.500000000000000e-01
0.000000000000000e+00 -3.333333333331250e-01 1.500000000000000e-01
-2.500000000000000e-01 -1.666666666665000e-01 1.500000000000000e-01
-5.000000000000000e-01 -3.333333333331250e-01 1.500000000000000e-01
-5.000000000000000e-01 -5.000000000000000e-01 2.500000000000000e-02
0.000000000000000e+00 -5.000000000000000e-01 2.500000000000000e-02
0.000000000000000e+00 -1.666666666665000e-01 2.500000000000000e-02
-5.000000000000000e-01 -1.666666666665000e-01 2.500000000000000e-02
-5.000000000000000e-01 -3.333333333331250e-01 2.500000000000000e-02
0.000000000000000e+00 -3.333333333331250e-01 2.500000000000000e-02
-2.500000000000000e-01 -5.000000000000000e-01 2.500000000000000e-02
-2.500000000000000e-01 -1.666666666665001e-01 2.500000000000000e-02
-2.500000000000000e-01 -3.333333333331250e-01 -9.999999999999999e-02
-2.500000000000000e-01 -3.333333333331250e-01 1.500000000000000e-01
-2.500000000000000e-01 -3.333333333331250e-01 2.500000000000000e-02
0.000000000000000e+00 -5.000000000000000e-01 -1.000000000000000e-01
5.000000000000000e-01 -5.000000000000000e-01 -1.000000000000000e-01
5.000000000000000e-01 -1.666666666665000e-01 -1.000000000000000e-01
0.000000000000000e+00 -1.666666666665000e-01 -1.000000000000000e-01
0.000000000000000e+00 -5.000000000000000e-01 1.500000000000000e-01
5.000000000000000e-01 -5.000000000000000e-01 1.500000000000000e-01
5.000000000000000e-01 -1.666666666665000e-01 1.500000000000000e-01
0.000000000000000e+00 -1.666666666665000e-01 1.500000000000000e-01
2.500000000000000e-01 -5.000000000000000e-01 -1.000000000000000e-01
5.000000000000000e-01 -3.333333333331250e-01 -9.999999999999999e-02
2.500000000000000e-01 -1.666666666665000e-01 -9.999999999999999e-02
0.000000000000000e+00 -3.333333333331250e-01 -1.000000000000000e-01
2.500000000000000e-01 -5.000000000000000e-01 1.500000000000000e-01
5.000000000000000e-01 -3.333333333331250e-01 1.500000000000000e-01
2.500000000000000e-01 -1.666666666665000e-01 1.500000000000000e-01
0.000000000000000e+00 -3.333333333331250e-01 1.500000000000000e-01
0.000000000000000e+00 -5.000000000000000e-01 2.500000000000000e-02
5.000000000000000e-01 -5.000000000000000e-01 2.500000000000000e-02
5.000000000000000e-01 -1.666666666665000e-01 2.500000000000000e-02
0.000000000000000e+00 -1.666666666665000e-01 2.500000000000000e-02
0.000000000000000e+00 -3.333333333331250e-01 2.500000000000000e-02
5.000000000000000e-01 -3.333333333331250e-01 2.500000000000000e-02
2.500000000000000e-01 -5.000000000000000e-01 2.500000000000000e-02
2.500000000000000e-01 -1.666666666665000e-01 2.500000000000000e-02
2.500000000000000e-01 -3.333333333331250e-01 -9.999999999999999e-02
2.500000000000000e-01 -3.333333333331251e-01 1.500000000000000e-01
2.500000000000000e-01 -3.333333333331250e-01 2.500000000000000e-02
-5.000000000000000e-01 -1.666666666665000e-01 -1.000000000000000e-01
0.000000000000000e+00 -1.666666666665000e-01 -1.000000000000000e-01
0.000000000000000e+00 1.666666666665000e-01 -9.999999999999999e-02
-5.000000000000000e-01 1.666666666665000e-01 -1.000000000000000e-01
-5.000000000000000e-01 -1.666666666665000e-01 1.500000000000000e-01
0.000000000000000e+00 -1.666666666665000e-01 1.500000000000000e-01
0.000000000000000e+00 1.666666666665000e-01 1.500000000000000e-01
-5.000000000000000e-01 1.666666666665000e-01 1.500000000000000e-01
-2.500000000000000e-01 -1.666666666665000e-01 -1.000000000000000e-01
0.000000000000000e+00 2.775557561562891e-17 -1.000000000000000e-01
-2.500000000000000e-01 1.666666666665000e-01 -9.999999999999999e-02
-5.000000000000001e-01 2.775557561562891e-17 -1.000000000000000e-01
-2.500000000000000e-01 -1.666666666665000e-01 1.500000000000000e-01
0.000000000000000e+00 3.469446951953614e-17 1.500000000000000e-01
-2.500000000000000e-01 1.666666666665000e-01 1.500000000000000e-01
-5.000000000000001e-01 2.775557561562891e-17 1.500000000000000e-01
-5.000000000000000e-01 -1.666666666665000e-01 2.500000000000000e-02
0.000000000000000e+00 -1.666666666665000e-01 2.500000000000000e-02
0.000000000000000e+00 1.666666666665000e-01 2.500000000000000e-02
-5.000000000000000e-01 1.666666666665000e-01 2.500000000000000e-02
-5.000000000000001e-01 2.428612866367530e-17 2.500000000000000e-02
0.000000000000000e+00 2.515349040166370e-17 2.500000000000000e-02
-2.500000000000000e-01 -1.666666666665001e-01 2.500000000000000e-02
-2.500000000000000e-01 1.666666666665000e-01 2.500000000000000e-02
-2.500000000000000e-01 2.428612866367530e-17 -9.999999999999999e-02
-2.500000000000000e-01 2.602085213965211e-17 1.500000000000000e-01
-2.500000000000000e-01 2.211772431870429e-17 2.500000000000000e-02
0.000000000000000e+00 -1.666666666665000e-01 -1.000000000000000e-01
5.000000000000000e-01 -1.666666666665000e-01 -1.000000000000000e-01
5.000000000000000e-01 1.666666666665000e-01 -1.000000000000000e-01
0.000000000000000e+00 1.666666666665000e-01 -9.999999999999999e-02
0.000000000000000e+00 -1.666666666665000e-01 1.500000000000000e-01
5.000000000000000e-01 -1.666666666665000e-01 1.500000000000000e-01
5.000000000000000e-01 1.666666666665000e-01 1.500000000000000e-01
0.000000000000000e+00 1.666666666665000e-01 1.500000000000000e-01
2.500000000000000e-01 -1.666666666665000e-01 -9.999999999999999e-02
5.000000000000001e-01 2.775557561562891e-17 -1.000000000000000e-01
2.500000000000000e-01 1.666666666665000e-01 -9.999999999999999e-02
0.000000000000000e+00 2.775557561562891e-17 -1.000000000000000e-01
2.500000000000000e-01 -1.666666666665000e-01 1.500000000000000e-01
5.000000000000001e-01 2.775557561562891e-17 1.500000000000000e-01
2.500000000000000e-01 1.666666666665000e-01 1.500000000000000e-01
0.000000000000000e+00 3.469446951953614e-17 1.500000000000000e-01
0.000000000000000e+00 -1.666666666665000e-01 2.500000000000000e-02
5.000000000000000e-01 -1.666666666665000e-01 2.500000000000000e-02
5.000000000000000e-01 1.666666666665000e-01 2.500000000000000e-02
0.000000000000000e+00 1.666666666665000e-01 2.500000000000000e-02
0.000000000000000e+00 2.515349040166370e-17 2.500000000000000e-02
5.000000000000001e-01 2.428612866367530e-17 2.500000000000000e-02
2.500000000000000e-01 -1.666666666665000e-01 2.500000000000000e-02
2.500000000000000e-01 1.666666666665000e-01 2.500000000000000e-02
2.500000000000000e-01 2.081668171172169e-17 -1.000000000000000e-01
2.500000000000000e-01 2.428612866367530e-17 1.500000000000000e-01
2.500000000000000e-01 2.341876692568690e-17 2.500000000000000e-02
-5.000000000000000e-01 1.666666666665000e-01 -1.000000000000000e-01
0.000000000000000e+00 1.666666666665000e-01 -9.999999999999999e-02
0.000000000000000e+00 5.000000000000000e-01 -1.000000000000000e-01
-5.000000000000000e-01 5.000000000000000e-01 -1.000000000000000e-01
-5.000000000000000e-01 1.666666666665000e-01 1.500000000000000e-01
0.000000000000000e+00 1.666666666665000e-01 1.500000000000000e-01
0.000000000000000e+00 5.000000000000000e-01 1.500000000000000e-01
-5.000000000000000e-01 5.000000000000000e-01 1.500000000000000e-01
-2.500000000000000e-01 1.666666666665000e-01 -9.999999999999999e-02
0.000000000000000e+00 3.333333333331250e-01 -1.000000000000000e-01
-2.500000000000000e-01 5.000000000000000e-01 -9.999999999999999e-02
-5.000000000000000e-01 3.333333333331250e-01 -1.000000000000000e-01
-2.500000000000000e-01 1.666666666665000e-01 1.500000000000000e-01
0.000000000000000e+00 3.333333333331250e-01 1.500000000000000e-01
-2.500000000000000e-01 5.000000000000000e-01 1.500000000000000e-01
-5.000000000000000e-01 3.333333333331250e-01 1.500000000000000e-01
-5.000000000000000e-01 1.666666666665000e-01 2.500000000000000e-02
0.000000000000000e+00 1.666666666665000e-01 2.500000000000000e-02
0.000000000000000e+00 5.000000000000000e-01 2.500000000000000e-02
-5.000000000000000e-01 5.000000000000000e-01 2.500000000000000e-02
-5.000000000000000e-01 3.333333333331250e-01 2.500000000000000e-02
0.000000000000000e+00 3.333333333331250e-01 2.499999999999999e-02
-2.500000000000000e-01 1.666666666665000e-01 2.500000000000000e-02
-2.500000000000000e-01 5.000000000000000e-01 2.500000000000000e-02
-2.500000000000000e-01 3.333333333331250e-01 -9.999999999999999e-02
-2.499999999999999e-01 3.333333333331250e-01 1.500000000000000e-01
-2.500000000000000e-01 3.333333333331249e-01 2.500000000000000e-02
0.000000000000000e+00 1.666666666665000e-01 -9.999999999999999e-02
5.000000000000000e-01 1.666666666665000e-01 -1.000000000000000e-01
5.000000000000000e-01 5.000000000000000e-01 -1.000000000000000e-01
0.000000000000000e+00 5.000000000000000e-01 -1.000000000000000e-01
0.000000000000000e+00 1.666666666665000e-01 1.500000000000000e-01
5.000000000000000e-01 1.666666666665000e-01 1.500000000000000e-01
[...]
  <PointData>
        <DataArray type="Float64" Name="displacement" NumberOfComponents="3" format="ascii">
0.000000000000000e+00 0.000000000000000e+00 0.000000000000000e+00
0.000000000000000e+00 0.000000000000000e+00 0.000000000000000e+00
0.000000000000000e+00 0.000000000000000e+00 0.000000000000000e+00
0.000000000000000e+00 0.000000000000000e+00 0.000000000000000e+00
0.000000000000000e+00 0.000000000000000e+00 0.000000000000000e+00
0.000000000000000e+00 0.000000000000000e+00 0.000000000000000e+00
0.000000000000000e+00 0.000000000000000e+00 0.000000000000000e+00
0.000000000000000e+00 0.000000000000000e+00 0.000000000000000e+00
0.000000000000000e+00 0.000000000000000e+00 0.000000000000000e+00
0.000000000000000e+00 0.000000000000000e+00 0.000000000000000e+00
0.000000000000000e+00 0.000000000000000e+00 0.000000000000000e+00
0.000000000000000e+00 0.000000000000000e+00 0.000000000000000e+00
0.000000000000000e+00 0.000000000000000e+00 0.000000000000000e+00
0.000000000000000e+00 0.000000000000000e+00 0.000000000000000e+00
0.000000000000000e+00 0.000000000000000e+00 0.000000000000000e+00
0.000000000000000e+00 0.000000000000000e+00 0.000000000000000e+00
0.000000000000000e+00 0.000000000000000e+00 0.000000000000000e+00
0.000000000000000e+00 0.000000000000000e+00 0.000000000000000e+00
0.000000000000000e+00 0.000000000000000e+00 0.000000000000000e+00
0.000000000000000e+00 0.000000000000000e+00 0.000000000000000e+00
0.000000000000000e+00 0.000000000000000e+00 0.000000000000000e+00
0.000000000000000e+00 0.000000000000000e+00 0.000000000000000e+00
0.000000000000000e+00 0.000000000000000e+00 0.000000000000000e+00
0.000000000000000e+00 0.000000000000000e+00 0.000000000000000e+00
0.000000000000000e+00 0.000000000000000e+00 0.000000000000000e+00
0.000000000000000e+00 0.000000000000000e+00 0.000000000000000e+00
0.000000000000000e+00 0.000000000000000e+00 0.000000000000000e+00
0.000000000000000e+00 0.000000000000000e+00 0.000000000000000e+00
0.000000000000000e+00 0.000000000000000e+00 0.000000000000000e+00
0.000000000000000e+00 0.000000000000000e+00 0.000000000000000e+00
0.000000000000000e+00 0.000000000000000e+00 0.000000000000000e+00
0.000000000000000e+00 0.000000000000000e+00 0.000000000000000e+00
0.000000000000000e+00 0.000000000000000e+00 0.000000000000000e+00
0.000000000000000e+00 0.000000000000000e+00 0.000000000000000e+00
0.000000000000000e+00 0.000000000000000e+00 0.000000000000000e+00
0.000000000000000e+00 0.000000000000000e+00 0.000000000000000e+00
0.000000000000000e+00 0.000000000000000e+00 0.000000000000000e+00
0.000000000000000e+00 0.000000000000000e+00 0.000000000000000e+00
0.000000000000000e+00 0.000000000000000e+00 0.000000000000000e+00
0.000000000000000e+00 0.000000000000000e+00 0.000000000000000e+00
0.000000000000000e+00 0.000000000000000e+00 0.000000000000000e+00
0.000000000000000e+00 0.000000000000000e+00 0.000000000000000e+00
0.000000000000000e+00 0.000000000000000e+00 0.000000000000000e+00
0.000000000000000e+00 0.000000000000000e+00 0.000000000000000e+00
0.000000000000000e+00 0.000000000000000e+00 0.000000000000000e+00
0.000000000000000e+00 0.000000000000000e+00 0.000000000000000e+00
0.000000000000000e+00 0.000000000000000e+00 0.000000000000000e+00
0.000000000000000e+00 0.000000000000000e+00 0.000000000000000e+00
0.000000000000000e+00 0.000000000000000e+00 0.000000000000000e+00
0.000000000000000e+00 0.000000000000000e+00 0.000000000000000e+00
0.000000000000000e+00 0.000000000000000e+00 0.000000000000000e+00
0.000000000000000e+00 0.000000000000000e+00 0.000000000000000e+00
0.000000000000000e+00 0.000000000000000e+00 0.000000000000000e+00
0.000000000000000e+00 0.000000000000000e+00 0.000000000000000e+00
0.000000000000000e+00 0.000000000000000e+00 0.000000000000000e+00
0.000000000000000e+00 0.000000000000000e+00 0.000000000000000e+00
0.000000000000000e+00 0.000000000000000e+00 0.000000000000000e+00
0.000000000000000e+00 0.000000000000000e+00 0.000000000000000e+00
0.000000000000000e+00 0.000000000000000e+00 0.000000000000000e+00
0.000000000000000e+00 0.000000000000000e+00 0.000000000000000e+00
0.000000000000000e+00 0.000000000000000e+00 0.000000000000000e+00
0.000000000000000e+00 0.000000000000000e+00 0.000000000000000e+00
0.000000000000000e+00 0.000000000000000e+00 0.000000000000000e+00
0.000000000000000e+00 0.000000000000000e+00 0.000000000000000e+00
0.000000000000000e+00 0.000000000000000e+00 0.000000000000000e+00
0.000000000000000e+00 0.000000000000000e+00 0.000000000000000e+00
0.000000000000000e+00 0.000000000000000e+00 0.000000000000000e+00
0.000000000000000e+00 0.000000000000000e+00 0.000000000000000e+00
0.000000000000000e+00 0.000000000000000e+00 0.000000000000000e+00
0.000000000000000e+00 0.000000000000000e+00 0.000000000000000e+00
0.000000000000000e+00 0.000000000000000e+00 0.000000000000000e+00
0.000000000000000e+00 0.000000000000000e+00 0.000000000000000e+00
0.000000000000000e+00 0.000000000000000e+00 0.000000000000000e+00
0.000000000000000e+00 0.000000000000000e+00 0.000000000000000e+00
0.000000000000000e+00 0.000000000000000e+00 0.000000000000000e+00
0.000000000000000e+00 0.000000000000000e+00 0.000000000000000e+00
0.000000000000000e+00 0.000000000000000e+00 0.000000000000000e+00
0.000000000000000e+00 0.000000000000000e+00 0.000000000000000e+00
0.000000000000000e+00 0.000000000000000e+00 0.000000000000000e+00
0.000000000000000e+00 0.000000000000000e+00 0.000000000000000e+00
0.000000000000000e+00 0.000000000000000e+00 0.000000000000000e+00
0.000000000000000e+00 0.000000000000000e+00 0.000000000000000e+00
0.000000000000000e+00 0.000000000000000e+00 0.000000000000000e+00
0.000000000000000e+00 0.000000000000000e+00 0.000000000000000e+00
0.000000000000000e+00 0.000000000000000e+00 0.000000000000000e+00
0.000000000000000e+00 0.000000000000000e+00 0.000000000000000e+00
0.000000000000000e+00 0.000000000000000e+00 0.000000000000000e+00
0.000000000000000e+00 0.000000000000000e+00 0.000000000000000e+00
0.000000000000000e+00 0.000000000000000e+00 0.000000000000000e+00
0.000000000000000e+00 0.000000000000000e+00 0.000000000000000e+00
0.000000000000000e+00 0.000000000000000e+00 0.000000000000000e+00
0.000000000000000e+00 0.000000000000000e+00 0.000000000000000e+00
0.000000000000000e+00 0.000000000000000e+00 0.000000000000000e+00
0.000000000000000e+00 0.000000000000000e+00 0.000000000000000e+00
0.000000000000000e+00 0.000000000000000e+00 0.000000000000000e+00
0.000000000000000e+00 0.000000000000000e+00 0.000000000000000e+00
0.000000000000000e+00 0.000000000000000e+00 0.000000000000000e+00
0.000000000000000e+00 0.000000000000000e+00 0.000000000000000e+00
0.000000000000000e+00 0.000000000000000e+00 0.000000000000000e+00
0.000000000000000e+00 0.000000000000000e+00 0.000000000000000e+00
0.000000000000000e+00 0.000000000000000e+00 0.000000000000000e+00
0.000000000000000e+00 0.000000000000000e+00 0.000000000000000e+00
0.000000000000000e+00 0.000000000000000e+00 0.000000000000000e+00
0.000000000000000e+00 0.000000000000000e+00 0.000000000000000e+00
0.000000000000000e+00 0.000000000000000e+00 0.000000000000000e+00
0.000000000000000e+00 0.000000000000000e+00 0.000000000000000e+00
0.000000000000000e+00 0.000000000000000e+00 0.000000000000000e+00
0.000000000000000e+00 0.000000000000000e+00 0.000000000000000e+00
0.000000000000000e+00 0.000000000000000e+00 0.000000000000000e+00
0.000000000000000e+00 0.000000000000000e+00 0.000000000000000e+00
0.000000000000000e+00 0.000000000000000e+00 0.000000000000000e+00
0.000000000000000e+00 0.000000000000000e+00 0.000000000000000e+00
0.000000000000000e+00 0.000000000000000e+00 0.000000000000000e+00
0.000000000000000e+00 0.000000000000000e+00 0.000000000000000e+00
0.000000000000000e+00 0.000000000000000e+00 0.000000000000000e+00
0.000000000000000e+00 0.000000000000000e+00 0.000000000000000e+00
0.000000000000000e+00 0.000000000000000e+00 0.000000000000000e+00
0.000000000000000e+00 0.000000000000000e+00 0.000000000000000e+00
0.000000000000000e+00 0.000000000000000e+00 0.000000000000000e+00
0.000000000000000e+00 0.000000000000000e+00 0.000000000000000e+00
0.000000000000000e+00 0.000000000000000e+00 0.000000000000000e+00
0.000000000000000e+00 0.000000000000000e+00 0.000000000000000e+00
0.000000000000000e+00 0.000000000000000e+00 0.000000000000000e+00
0.000000000000000e+00 0.000000000000000e+00 0.000000000000000e+00
0.000000000000000e+00 0.000000000000000e+00 0.000000000000000e+00
0.000000000000000e+00 0.000000000000000e+00 0.000000000000000e+00
0.000000000000000e+00 0.000000000000000e+00 0.000000000000000e+00
0.000000000000000e+00 0.000000000000000e+00 0.000000000000000e+00
0.000000000000000e+00 0.000000000000000e+00 0.000000000000000e+00
0.000000000000000e+00 0.000000000000000e+00 0.000000000000000e+00
0.000000000000000e+00 0.000000000000000e+00 0.000000000000000e+00
0.000000000000000e+00 0.000000000000000e+00 0.000000000000000e+00
0.000000000000000e+00 0.000000000000000e+00 0.000000000000000e+00
0.000000000000000e+00 0.000000000000000e+00 0.000000000000000e+00
0.000000000000000e+00 0.000000000000000e+00 0.000000000000000e+00
0.000000000000000e+00 0.000000000000000e+00 0.000000000000000e+00
0.000000000000000e+00 0.000000000000000e+00 0.000000000000000e+00
0.000000000000000e+00 0.000000000000000e+00 0.000000000000000e+00
0.000000000000000e+00 0.000000000000000e+00 0.000000000000000e+00
0.000000000000000e+00 0.000000000000000e+00 0.000000000000000e+00
0.000000000000000e+00 0.000000000000000e+00 0.000000000000000e+00
0.000000000000000e+00 0.000000000000000e+00 0.000000000000000e+00
0.000000000000000e+00 0.000000000000000e+00 0.000000000000000e+00
0.000000000000000e+00 0.000000000000000e+00 0.000000000000000e+00
0.000000000000000e+00 0.000000000000000e+00 0.000000000000000e+00
0.000000000000000e+00 0.000000000000000e+00 0.000000000000000e+00
0.000000000000000e+00 0.000000000000000e+00 0.000000000000000e+00
0.000000000000000e+00 0.000000000000000e+00 0.000000000000000e+00
0.000000000000000e+00 0.000000000000000e+00 0.000000000000000e+00
0.000000000000000e+00 0.000000000000000e+00 0.000000000000000e+00
0.000000000000000e+00 0.000000000000000e+00 0.000000000000000e+00
0.000000000000000e+00 0.000000000000000e+00 0.000000000000000e+00
0.000000000000000e+00 0.000000000000000e+00 0.000000000000000e+00
0.000000000000000e+00 0.000000000000000e+00 0.000000000000000e+00
0.000000000000000e+00 0.000000000000000e+00 0.000000000000000e+00
0.000000000000000e+00 0.000000000000000e+00 0.000000000000000e+00
0.000000000000000e+00 0.000000000000000e+00 0.000000000000000e+00
0.000000000000000e+00 0.000000000000000e+00 0.000000000000000e+00
0.000000000000000e+00 0.000000000000000e+00 0.000000000000000e+00
0.000000000000000e+00 0.000000000000000e+00 0.000000000000000e+00
0.000000000000000e+00 0.000000000000000e+00 0.000000000000000e+00
0.000000000000000e+00 0.000000000000000e+00 0.000000000000000e+00
0.000000000000000e+00 0.000000000000000e+00 0.000000000000000e+00
0.000000000000000e+00 0.000000000000000e+00 0.000000000000000e+00
0.000000000000000e+00 0.000000000000000e+00 0.000000000000000e+00
0.000000000000000e+00 0.000000000000000e+00 0.000000000000000e+00
0.000000000000000e+00 0.000000000000000e+00 0.000000000000000e+00
0.000000000000000e+00 0.000000000000000e+00 0.000000000000000e+00
0.000000000000000e+00 0.000000000000000e+00 0.000000000000000e+00
0.000000000000000e+00 0.000000000000000e+00 0.000000000000000e+00
0.000000000000000e+00 0.000000000000000e+00 0.000000000000000e+00
0.000000000000000e+00 0.000000000000000e+00 0.000000000000000e+00
0.000000000000000e+00 0.000000000000000e+00 0.000000000000000e+00
0.000000000000000e+00 0.000000000000000e+00 0.000000000000000e+00
0.000000000000000e+00 0.000000000000000e+00 0.000000000000000e+00
0.000000000000000e+00 0.000000000000000e+00 0.000000000000000e+00
0.000000000000000e+00 0.000000000000000e+00 0.000000000000000e+00
0.000000000000000e+00 0.000000000000000e+00 0.000000000000000e+00
0.000000000000000e+00 0.000000000000000e+00 0.000000000000000e+00
0.000000000000000e+00 0.000000000000000e+00 0.000000000000000e+00
0.000000000000000e+00 0.000000000000000e+00 0.000000000000000e+00
0.000000000000000e+00 0.000000000000000e+00 0.000000000000000e+00
0.000000000000000e+00 0.000000000000000e+00 0.000000000000000e+00
0.000000000000000e+00 0.000000000000000e+00 0.000000000000000e+00
0.000000000000000e+00 0.000000000000000e+00 0.000000000000000e+00
0.000000000000000e+00 0.000000000000000e+00 0.000000000000000e+00
0.000000000000000e+00 0.000000000000000e+00 0.000000000000000e+00
0.000000000000000e+00 0.000000000000000e+00 0.000000000000000e+00
0.000000000000000e+00 0.000000000000000e+00 0.000000000000000e+00
0.000000000000000e+00 0.000000000000000e+00 0.000000000000000e+00
0.000000000000000e+00 0.000000000000000e+00 0.000000000000000e+00
0.000000000000000e+00 0.000000000000000e+00 0.000000000000000e+00
0.000000000000000e+00 0.000000000000000e+00 0.000000000000000e+00
0.000000000000000e+00 0.000000000000000e+00 0.000000000000000e+00
0.000000000000000e+00 0.000000000000000e+00 0.000000000000000e+00
0.000000000000000e+00 0.000000000000000e+00 0.000000000000000e+00
0.000000000000000e+00 0.000000000000000e+00 0.000000000000000e+00
0.000000000000000e+00 0.000000000000000e+00 0.000000000000000e+00
0.000000000000000e+00 0.000000000000000e+00 0.000000000000000e+00
0.000000000000000e+00 0.000000000000000e+00 0.000000000000000e+00
0.000000000000000e+00 0.000000000000000e+00 0.000000000000000e+00
0.000000000000000e+00 0.000000000000000e+00 0.000000000000000e+00
0.000000000000000e+00 0.000000000000000e+00 0.000000000000000e+00
0.000000000000000e+00 0.000000000000000e+00 0.000000000000000e+00
0.000000000000000e+00 0.000000000000000e+00 0.000000000000000e+00
0.000000000000000e+00 0.000000000000000e+00 0.000000000000000e+00
0.000000000000000e+00 0.000000000000000e+00 0.000000000000000e+00
0.000000000000000e+00 0.000000000000000e+00 0.000000000000000e+00
0.000000000000000e+00 0.000000000000000e+00 0.000000000000000e+00
0.000000000000000e+00 0.000000000000000e+00 0.000000000000000e+00
0.000000000000000e+00 0.000000000000000e+00 0.000000000000000e+00
0.000000000000000e+00 0.000000000000000e+00 0.000000000000000e+00
0.000000000000000e+00 0.000000000000000e+00 0.000000000000000e+00
0.000000000000000e+00 0.000000000000000e+00 0.000000000000000e+00
0.000000000000000e+00 0.000000000000000e+00 0.000000000000000e+00
0.000000000000000e+00 0.000000000000000e+00 0.000000000000000e+00
0.000000000000000e+00 0.000000000000000e+00 0.000000000000000e+00
0.000000000000000e+00 0.000000000000000e+00 0.000000000000000e+00
0.000000000000000e+00 0.000000000000000e+00 0.000000000000000e+00
0.000000000000000e+00 0.000000000000000e+00 0.000000000000000e+00
0.000000000000000e+00 0.000000000000000e+00 0.000000000000000e+00
0.000000000000000e+00 0.000000000000000e+00 0.000000000000000e+00
0.000000000000000e+00 0.000000000000000e+00 0.000000000000000e+00
0.000000000000000e+00 0.000000000000000e+00 0.000000000000000e+00
0.000000000000000e+00 0.000000000000000e+00 0.000000000000000e+00
0.000000000000000e+00 0.000000000000000e+00 0.000000000000000e+00
0.000000000000000e+00 0.000000000000000e+00 0.000000000000000e+00
0.000000000000000e+00 0.000000000000000e+00 0.000000000000000e+00
0.000000000000000e+00 0.000000000000000e+00 0.000000000000000e+00
0.000000000000000e+00 0.000000000000000e+00 0.000000000000000e+00
0.000000000000000e+00 0.000000000000000e+00 0.000000000000000e+00
0.000000000000000e+00 0.000000000000000e+00 0.000000000000000e+00
0.000000000000000e+00 0.000000000000000e+00 0.000000000000000e+00
0.000000000000000e+00 0.000000000000000e+00 0.000000000000000e+00
0.000000000000000e+00 0.000000000000000e+00 0.000000000000000e+00
0.000000000000000e+00 0.000000000000000e+00 0.000000000000000e+00
0.000000000000000e+00 0.000000000000000e+00 0.000000000000000e+00
0.000000000000000e+00 0.000000000000000e+00 0.000000000000000e+00
0.000000000000000e+00 0.000000000000000e+00 0.000000000000000e+00
0.000000000000000e+00 0.000000000000000e+00 0.000000000000000e+00
0.000000000000000e+00 0.000000000000000e+00 0.000000000000000e+00
0.000000000000000e+00 0.000000000000000e+00 0.000000000000000e+00
0.000000000000000e+00 0.000000000000000e+00 0.000000000000000e+00
0.000000000000000e+00 0.000000000000000e+00 0.000000000000000e+00
0.000000000000000e+00 0.000000000000000e+00 0.000000000000000e+00
0.000000000000000e+00 0.000000000000000e+00 0.000000000000000e+00
0.000000000000000e+00 0.000000000000000e+00 0.000000000000000e+00
0.000000000000000e+00 0.000000000000000e+00 0.000000000000000e+00
0.000000000000000e+00 0.000000000000000e+00 0.000000000000000e+00
0.000000000000000e+00 0.000000000000000e+00 0.000000000000000e+00
0.000000000000000e+00 0.000000000000000e+00 0.000000000000000e+00
0.000000000000000e+00 0.000000000000000e+00 0.000000000000000e+00
0.000000000000000e+00 0.000000000000000e+00 0.000000000000000e+00
0.000000000000000e+00 0.000000000000000e+00 0.000000000000000e+00
0.000000000000000e+00 0.000000000000000e+00 0.000000000000000e+00
0.000000000000000e+00 0.000000000000000e+00 0.000000000000000e+00
0.000000000000000e+00 0.000000000000000e+00 0.000000000000000e+00
0.000000000000000e+00 0.000000000000000e+00 0.000000000000000e+00
0.000000000000000e+00 0.000000000000000e+00 0.000000000000000e+00
0.000000000000000e+00 0.000000000000000e+00 0.000000000000000e+00
0.000000000000000e+00 0.000000000000000e+00 0.000000000000000e+00
0.000000000000000e+00 0.000000000000000e+00 0.000000000000000e+00
0.000000000000000e+00 0.000000000000000e+00 0.000000000000000e+00
0.000000000000000e+00 0.000000000000000e+00 0.000000000000000e+00
0.000000000000000e+00 0.000000000000000e+00 0.000000000000000e+00
0.000000000000000e+00 0.000000000000000e+00 0.000000000000000e+00
0.000000000000000e+00 0.000000000000000e+00 0.000000000000000e+00
0.000000000000000e+00 0.000000000000000e+00 0.000000000000000e+00
0.000000000000000e+00 0.000000000000000e+00 0.000000000000000e+00
0.000000000000000e+00 0.000000000000000e+00 0.000000000000000e+00
0.000000000000000e+00 0.000000000000000e+00 0.000000000000000e+00
0.000000000000000e+00 0.000000000000000e+00 0.000000000000000e+00
0.000000000000000e+00 0.000000000000000e+00 0.000000000000000e+00
0.000000000000000e+00 0.000000000000000e+00 0.000000000000000e+00
0.000000000000000e+00 0.000000000000000e+00 0.000000000000000e+00
0.000000000000000e+00 0.000000000000000e+00 0.000000000000000e+00
0.000000000000000e+00 0.000000000000000e+00 0.000000000000000e+00
0.000000000000000e+00 0.000000000000000e+00 0.000000000000000e+00
0.000000000000000e+00 0.000000000000000e+00 0.000000000000000e+00
0.000000000000000e+00 0.000000000000000e+00 0.000000000000000e+00
0.000000000000000e+00 0.000000000000000e+00 0.000000000000000e+00
0.000000000000000e+00 0.000000000000000e+00 0.000000000000000e+00
0.000000000000000e+00 0.000000000000000e+00 0.000000000000000e+00
0.000000000000000e+00 0.000000000000000e+00 0.000000000000000e+00
0.000000000000000e+00 0.000000000000000e+00 0.000000000000000e+00
0.000000000000000e+00 0.000000000000000e+00 0.000000000000000e+00
0.000000000000000e+00 0.000000000000000e+00 0.000000000000000e+00
0.000000000000000e+00 0.000000000000000e+00 0.000000000000000e+00
0.000000000000000e+00 0.000000000000000e+00 0.000000000000000e+00
0.000000000000000e+00 0.000000000000000e+00 0.000000000000000e+00
0.000000000000000e+00 0.000000000000000e+00 0.000000000000000e+00
0.000000000000000e+00 0.000000000000000e+00 0.000000000000000e+00
0.000000000000000e+00 0.000000000000000e+00 0.000000000000000e+00
0.000000000000000e+00 0.000000000000000e+00 0.000000000000000e+00
0.000000000000000e+00 0.000000000000000e+00 0.000000000000000e+00
0.000000000000000e+00 0.000000000000000e+00 0.000000000000000e+00
0.000000000000000e+00 0.000000000000000e+00 0.000000000000000e+00
0.000000000000000e+00 0.000000000000000e+00 0.000000000000000e+00
0.000000000000000e+00 0.000000000000000e+00 0.000000000000000e+00
0.000000000000000e+00 0.000000000000000e+00 0.000000000000000e+00
0.000000000000000e+00 0.000000000000000e+00 0.000000000000000e+00