<?xml version="1.0" ?> 
<!-- 
# vtk DataFile Version 3.0
-->
<VTKFile type="UnstructuredGrid" version="0.1" compressor="vtkZLibDataCompressor" byte_order="LittleEndian">
  <UnstructuredGrid>
    <FieldData>
      <DataArray type="Float64" Name="TIME" NumberOfTuples="1" format="ascii">
1.000000000000000e+00 
      </DataArray>
    </FieldData>

    <Piece NumberOfPoints="324" NumberOfCells="12" >
      <Points>
        <DataArray type="Float64" NumberOfComponents="3" format="ascii">
-5.000000000000000e-01 -5.000000000000000e-01 4.000000000000000e-01
0.000000000000000e+00 -5.000000000000000e-01 4.000000000000000e-01
0.000000000000000e+00 -1.666666666665000e-01 4.000000000000000e-01
-5.000000000000000e-01 -1.666666666665000e-01 4.000000000000000e-01
-5.000000000000000e-01 -5.000000000000000e-01 6.500000000000000e-01
0.000000000000000e+00 -5.000000000000000e-01 6.500000000000000e-01
0.000000000000000e+00 -1.666666666665000e-01 6.500000000000000e-01
-5.000000000000000e-01 -1.666666666665000e-01 6.500000000000000e-01
-2.500000000000000e-01 -5.000000000000000e-01 4.000000000000000e-01
0.000000000000000e+00 -3.333333333331250e-01 4.000000000000000e-01
-2.500000000000000e-01 -1.666666666665000e-01 4.000000000000000e-01
-5.000000000000000e-01 -3.333333333331250e-01 4.000000000000000e-01
-2.500000000000000e-01 -5.000000000000000e-01 6.500000000000000e-01
0.000000000000000e+00 -3.333333333331250e-01 6.499999999999999e-01
-2.500000000000000e-01 -1.666666666665000e-01 6.500000000000000e-01
-5.000000000000000e-01 -3.333333333331250e-01 6.500000000000000e-01
-5.000000000000000e-01 -5.000000000000000e-01 5.250000000000000e-01
0.000000000000000e+00 -5.000000000000000e-01 5.250000000000000e-01
0.000000000000000e+00 -1.666666666665000e-01 5.250000000000000e-01
-5.000000000000000e-01 -1.666666666665000e-01 5.250000000000000e-01
-5.000000000000000e-01 -3.333333333331250e-01 5.250000000000000e-01
0.000000000000000e+00 -3.333333333331250e-01 5.250000000000000e-01
-2.500000000000000e-01 -5.000000000000000e-01 5.250000000000000e-01
-2.500000000000000e-01 -1.666666666665000e-01 5.250000000000000e-01
-2.500000000000000e-01 -3.333333333331250e-01 4.000000000000000e-01
-2.500000000000000e-01 -3.333333333331250e-01 6.500000000000000e-01
-2.500000000000000e-01 -3.333333333331250e-01 5.250000000000000e-01
0.000000000000000e+00 -5.000000000000000e-01 4.000000000000000e-01
5.000000000000000e-01 -5.000000000000000e-01 4.000000000000000e-01
5.000000000000000e-01 -1.666666666665000e-01 4.000000000000000e-01
0.000000000000000e+00 -1.666666666665000e-01 4.000000000000000e-01
0.000000000000000e+00 -5.000000000000000e-01 6.500000000000000e-01
5.000000000000000e-01 -5.000000000000000e-01 6.500000000000000e-01
5.000000000000000e-01 -1.666666666665000e-01 6.500000000000000e-01
0.000000000000000e+00 -1.666666666665000e-01 6.500000000000000e-01
2.500000000000000e-01 -5.000000000000000e-01 4.000000000000000e-01
5.000000000000000e-01 -3.333333333331250e-01 4.000000000000000e-01
2.500000000000000e-01 -1.666666666665000e-01 4.000000000000001e-01
0.000000000000000e+00 -3.333333333331250e-01 4.000000000000000e-01
2.500000000000000e-01 -5.000000000000000e-01 6.500000000000001e-01
5.000000000000000e-01 -3.333333333331250e-01 6.500000000000000e-01
2.500000000000000e-01 -1.666666666665000e-01 6.500000000000000e-01
0.000000000000000e+00 -3.333333333331250e-01 6.499999999999999e-01
0.000000000000000e+00 -5.000000000000000e-01 5.250000000000000e-01
5.000000000000000e-01 -5.000000000000000e-01 5.250000000000000e-01
5.000000000000000e-01 -1.666666666665000e-01 5.250000000000000e-01
0.000000000000000e+00 -1.666666666665000e-01 5.250000000000000e-01
0.000000000000000e+00 -3.333333333331250e-01 5.250000000000000e-01
5.000000000000000e-01 -3.333333333331250e-01 5.250000000000000e-01
2.500000000000000e-01 -5.000000000000000e-01 5.249999999999999e-01
2.500000000000000e-01 -1.666666666665000e-01 5.249999999999999e-01
2.500000000000000e-01 -3.333333333331251e-01 4.000000000000000e-01
2.500000000000000e-01 -3.333333333331251e-01 6.500000000000000e-01
2.500000000000000e-01 -3.333333333331249e-01 5.250000000000000e-01
-5.000000000000000e-01 -1.666666666665000e-01 4.000000000000000e-01
0.000000000000000e+00 -1.666666666665000e-01 4.000000000000000e-01
0.000000000000000e+00 1.666666666665000e-01 4.000000000000000e-01
-5.000000000000000e-01 1.666666666665000e-01 4.000000000000000e-01
-5.000000000000000e-01 -1.666666666665000e-01 6.500000000000000e-01
0.000000000000000e+00 -1.666666666665000e-01 6.500000000000000e-01
0.000000000000000e+00 1.666666666665000e-01 6.499999999999999e-01
-5.000000000000000e-01 1.666666666665000e-01 6.499999999999999e-01
-2.500000000000000e-01 -1.666666666665000e-01 4.000000000000000e-01
0.000000000000000e+00 3.469446951953614e-17 4.000000000000001e-01
-2.500000000000000e-01 1.666666666665000e-01 4.000000000000000e-01
-5.000000000000001e-01 2.775557561562891e-17 4.000000000000001e-01
-2.500000000000000e-01 -1.666666666665000e-01 6.500000000000000e-01
0.000000000000000e+00 3.469446951953614e-17 6.499999999999999e-01
-2.500000000000000e-01 1.666666666665000e-01 6.500000000000000e-01
-5.000000000000001e-01 2.775557561562891e-17 6.500000000000001e-01
-5.000000000000000e-01 -1.666666666665000e-01 5.250000000000000e-01
0.000000000000000e+00 -1.666666666665000e-01 5.250000000000000e-01
0.000000000000000e+00 1.666666666665000e-01 5.249999999999999e-01
-5.000000000000000e-01 1.666666666665000e-01 5.250000000000000e-01
-5.000000000000000e-01 3.469446951953614e-17 5.250000000000000e-01
0.000000000000000e+00 3.469446951953614e-17 5.250000000000001e-01
-2.500000000000000e-01 -1.666666666665000e-01 5.250000000000000e-01
-2.500000000000000e-01 1.666666666665000e-01 5.249999999999999e-01
-2.500000000000000e-01 2.602085213965211e-17 4.000000000000000e-01
-2.500000000000000e-01 2.602085213965211e-17 6.500000000000000e-01
-2.500000000000000e-01 3.079134169858833e-17 5.250000000000000e-01
0.000000000000000e+00 -1.666666666665000e-01 4.000000000000000e-01
5.000000000000000e-01 -1.666666666665000e-01 4.000000000000000e-01
5.000000000000000e-01 1.666666666665000e-01 4.000000000000000e-01
0.000000000000000e+00 1.666666666665000e-01 4.000000000000000e-01
0.000000000000000e+00 -1.666666666665000e-01 6.500000000000000e-01
5.000000000000000e-01 -1.666666666665000e-01 6.500000000000000e-01
5.000000000000000e-01 1.666666666665000e-01 6.499999999999999e-01
0.000000000000000e+00 1.666666666665000e-01 6.499999999999999e-01
2.500000000000000e-01 -1.666666666665000e-01 4.000000000000001e-01
5.000000000000001e-01 2.775557561562891e-17 4.000000000000001e-01
2.500000000000000e-01 1.666666666665000e-01 4.000000000000000e-01
0.000000000000000e+00 3.469446951953614e-17 4.000000000000001e-01
2.500000000000000e-01 -1.666666666665000e-01 6.500000000000000e-01
5.000000000000001e-01 2.775557561562891e-17 6.500000000000001e-01
2.500000000000000e-01 1.666666666665000e-01 6.500000000000000e-01
0.000000000000000e+00 3.469446951953614e-17 6.499999999999999e-01
0.000000000000000e+00 -1.666666666665000e-01 5.250000000000000e-01
5.000000000000000e-01 -1.666666666665000e-01 5.250000000000000e-01
5.000000000000000e-01 1.666666666665000e-01 5.250000000000000e-01
0.000000000000000e+00 1.666666666665000e-01 5.249999999999999e-01
0.000000000000000e+00 3.469446951953614e-17 5.250000000000001e-01
5.000000000000000e-01 3.469446951953614e-17 5.250000000000000e-01
2.500000000000000e-01 -1.666666666665000e-01 5.249999999999999e-01
2.500000000000000e-01 1.666666666665000e-01 5.249999999999999e-01
2.500000000000000e-01 2.428612866367530e-17 4.000000000000000e-01
2.500000000000000e-01 2.428612866367530e-17 6.499999999999999e-01
2.500000000000000e-01 2.515349040166370e-17 5.250000000000000e-01
-5.000000000000000e-01 1.666666666665000e-01 4.000000000000000e-01
0.000000000000000e+00 1.666666666665000e-01 4.000000000000000e-01
0.000000000000000e+00 5.000000000000000e-01 4.000000000000000e-01
-5.000000000000000e-01 5.000000000000000e-01 4.000000000000000e-01
-5.000000000000000e-01 1.666666666665000e-01 6.499999999999999e-01
0.000000000000000e+00 1.666666666665000e-01 6.499999999999999e-01
0.000000000000000e+00 5.000000000000000e-01 6.500000000000000e-01
-5.000000000000000e-01 5.000000000000000e-01 6.500000000000000e-01
-2.500000000000000e-01 1.666666666665000e-01 4.000000000000000e-01
0.000000000000000e+00 3.333333333331250e-01 4.000000000000000e-01
-2.500000000000000e-01 5.000000000000000e-01 4.000000000000000e-01
-5.000000000000000e-01 3.333333333331250e-01 4.000000000000001e-01
-2.500000000000000e-01 1.666666666665000e-01 6.500000000000000e-01
0.000000000000000e+00 3.333333333331250e-01 6.500000000000001e-01
-2.500000000000000e-01 5.000000000000000e-01 6.500000000000000e-01
-5.000000000000000e-01 3.333333333331250e-01 6.500000000000000e-01
-5.000000000000000e-01 1.666666666665000e-01 5.250000000000000e-01
0.000000000000000e+00 1.666666666665000e-01 5.249999999999999e-01
0.000000000000000e+00 5.000000000000000e-01 5.250000000000000e-01
-5.000000000000000e-01 5.000000000000000e-01 5.250000000000000e-01
-5.000000000000000e-01 3.333333333331250e-01 5.250000000000000e-01
0.000000000000000e+00 3.333333333331250e-01 5.249999999999999e-01
-2.500000000000000e-01 1.666666666665000e-01 5.249999999999999e-01
-2.500000000000000e-01 5.000000000000000e-01 5.250000000000000e-01
-2.499999999999999e-01 3.333333333331250e-01 3.999999999999999e-01
-2.499999999999999e-01 3.333333333331250e-01 6.499999999999998e-01
-2.500000000000000e-01 3.333333333331249e-01 5.250000000000001e-01
0.000000000000000e+00 1.666666666665000e-01 4.000000000000000e-01
5.000000000000000e-01 1.666666666665000e-01 4.000000000000000e-01
5.000000000000000e-01 5.000000000000000e-01 4.000000000000000e-01
0.000000000000000e+00 5.000000000000000e-01 4.000000000000000e-01
0.000000000000000e+00 1.666666666665000e-01 6.499999999999999e-01
5.000000000000000e-01 1.666666666665000e-01 6.499999999999999e-01
5.000000000000000e-01 5.000000000000000e-01 6.500000000000000e-01
[...]
  <PointData>
        <DataArray type="Float64" Name="displacement" NumberOfComponents="3" format="ascii">
2.457090776255629e-02 2.462224021070997e-02 7.853157122033072e-02
2.255140518769849e-17 2.556143495083020e-02 7.490720249775255e-02
4.987329993433320e-18 8.407511870415055e-03 7.195668959970244e-02
2.525436284842851e-02 8.335406626078476e-03 7.545935094470249e-02
2.658140328921307e-02 2.644545614567163e-02 1.160315792645802e-01
9.107298248878237e-18 2.675806272913937e-02 1.141238786003126e-01
1.040834085586084e-17 8.956871820690979e-03 1.126053927789349e-01
2.670231632640696e-02 8.922314835981819e-03 1.143810030723665e-01
1.244955611391917e-02 2.532663626580012e-02 7.581329467839712e-02
1.404041813368728e-17 1.689974857572638e-02 7.324570090825962e-02
1.258649951946398e-02 8.389485559330912e-03 7.283235493595246e-02
2.489808618241903e-02 1.657481833527559e-02 7.677459829504110e-02
1.338317753093018e-02 2.667991108327245e-02 1.146008037663795e-01
1.057097118173367e-17 1.788560545814857e-02 1.133601319504250e-01
1.342519382118609e-02 8.948232574513684e-03 1.130492953522928e-01
2.657321613894590e-02 1.776425758139517e-02 1.151730171602557e-01
2.598396080634168e-02 2.579475551690488e-02 9.693933505230279e-02
1.929879867024198e-17 2.639131619871053e-02 9.438881865285421e-02
9.486769009248164e-18 8.758663179743831e-03 9.233005679298922e-02
2.627374264989894e-02 8.703046738903202e-03 9.474758962152420e-02
2.601697893082341e-02 1.732749730285523e-02 9.572570521110300e-02
1.738789234123628e-17 1.754615802435743e-02 9.327491607472967e-02
1.303895972481083e-02 2.624217602825911e-02 9.502644775271639e-02
1.312387267643840e-02 8.744759069533670e-03 9.293444000012298e-02
1.243243370176852e-02 1.681851601561368e-02 7.412792525495500e-02
1.336625813581783e-02 1.785526848896022e-02 1.138133532528827e-01
1.301834373654077e-02 1.749149284398187e-02 9.388761335882302e-02
2.255140518769849e-17 2.556143495083020e-02 7.490720249775255e-02
-2.457090776255624e-02 2.462224021071004e-02 7.853157122033073e-02
-2.525436284842850e-02 8.335406626078476e-03 7.545935094470246e-02
4.987329993433320e-18 8.407511870415055e-03 7.195668959970244e-02
9.107298248878237e-18 2.675806272913937e-02 1.141238786003126e-01
-2.658140328921305e-02 2.644545614567169e-02 1.160315792645802e-01
-2.670231632640694e-02 8.922314835981814e-03 1.143810030723665e-01
1.040834085586084e-17 8.956871820690979e-03 1.126053927789349e-01
-1.244955611391913e-02 2.532663626580018e-02 7.581329467839708e-02
-2.489808618241904e-02 1.657481833527562e-02 7.677459829504110e-02
-1.258649951946397e-02 8.389485559330910e-03 7.283235493595246e-02
1.404041813368728e-17 1.689974857572638e-02 7.324570090825962e-02
-1.338317753093016e-02 2.667991108327244e-02 1.146008037663795e-01
-2.657321613894589e-02 1.776425758139519e-02 1.151730171602558e-01
-1.342519382118607e-02 8.948232574513692e-03 1.130492953522928e-01
1.057097118173367e-17 1.788560545814857e-02 1.133601319504250e-01
1.929879867024198e-17 2.639131619871053e-02 9.438881865285421e-02
-2.598396080634167e-02 2.579475551690497e-02 9.693933505230283e-02
-2.627374264989893e-02 8.703046738903198e-03 9.474758962152420e-02
9.486769009248164e-18 8.758663179743831e-03 9.233005679298922e-02
1.738789234123628e-17 1.754615802435743e-02 9.327491607472967e-02
-2.601697893082343e-02 1.732749730285526e-02 9.572570521110302e-02
-1.303895972481080e-02 2.624217602825915e-02 9.502644775271633e-02
-1.312387267643838e-02 8.744759069533675e-03 9.293444000012296e-02
-1.243243370176850e-02 1.681851601561369e-02 7.412792525495497e-02
-1.336625813581781e-02 1.785526848896023e-02 1.138133532528827e-01
-1.301834373654075e-02 1.749149284398189e-02 9.388761335882299e-02
2.525436284842851e-02 8.335406626078476e-03 7.545935094470249e-02
4.987329993433320e-18 8.407511870415055e-03 7.195668959970244e-02
5.637851296924623e-18 -8.407511870415073e-03 7.195668959970243e-02
2.525436284842851e-02 -8.335406626078498e-03 7.545935094470249e-02
2.670231632640696e-02 8.922314835981819e-03 1.143810030723665e-01
1.040834085586084e-17 8.956871820690979e-03 1.126053927789349e-01
1.019150042136374e-17 -8.956871820690996e-03 1.126053927789349e-01
2.670231632640695e-02 -8.922314835981809e-03 1.143810030723665e-01
1.258649951946398e-02 8.389485559330912e-03 7.283235493595246e-02
6.505213034913027e-19 -1.366094737331736e-17 7.140530651565780e-02
1.258649951946399e-02 -8.389485559330929e-03 7.283235493595244e-02
2.543977574296993e-02 -1.691355389077387e-17 7.491215866327097e-02
1.342519382118609e-02 8.948232574513684e-03 1.130492953522928e-01
1.067939139898222e-17 -1.398620802506301e-17 1.122302750627892e-01
1.342519382118609e-02 -8.948232574513699e-03 1.130492953522928e-01
2.680118825456956e-02 1.713039432527097e-17 1.140016330325308e-01
2.627374264989894e-02 8.703046738903202e-03 9.474758962152420e-02
9.486769009248164e-18 8.758663179743831e-03 9.233005679298922e-02
1.257674520083185e-17 -8.758663179743850e-03 9.233005679298922e-02
2.627374264989894e-02 -8.703046738903221e-03 9.474758962152421e-02
2.645806090808515e-02 -1.311884628707460e-17 9.431741038964006e-02
4.946672411965114e-18 -1.477225460011500e-17 9.189988797621505e-02
1.312387267643840e-02 8.744759069533670e-03 9.293444000012298e-02
1.312387267643841e-02 -8.744759069533687e-03 9.293444000012298e-02
1.270632948577323e-02 -1.363384231900522e-17 7.228201955256107e-02
1.347362543399037e-02 -8.348356728138384e-18 1.126731145552246e-01
1.320817337842914e-02 -1.249543003789544e-17 9.250426857957127e-02
4.987329993433320e-18 8.407511870415055e-03 7.195668959970244e-02
-2.525436284842850e-02 8.335406626078476e-03 7.545935094470246e-02
-2.525436284842851e-02 -8.335406626078495e-03 7.545935094470248e-02
5.637851296924623e-18 -8.407511870415073e-03 7.195668959970243e-02
1.040834085586084e-17 8.956871820690979e-03 1.126053927789349e-01
-2.670231632640694e-02 8.922314835981814e-03 1.143810030723665e-01
-2.670231632640693e-02 -8.922314835981831e-03 1.143810030723665e-01
1.019150042136374e-17 -8.956871820690996e-03 1.126053927789349e-01
-1.258649951946397e-02 8.389485559330910e-03 7.283235493595246e-02
-2.543977574296991e-02 -2.450296909817240e-17 7.491215866327092e-02
-1.258649951946398e-02 -8.389485559330931e-03 7.283235493595244e-02
6.505213034913027e-19 -1.366094737331736e-17 7.140530651565780e-02
-1.342519382118607e-02 8.948232574513692e-03 1.130492953522928e-01
-2.680118825456951e-02 -8.023096076392733e-18 1.140016330325307e-01
-1.342519382118606e-02 -8.948232574513708e-03 1.130492953522928e-01
1.067939139898222e-17 -1.398620802506301e-17 1.122302750627892e-01
9.486769009248164e-18 8.758663179743831e-03 9.233005679298922e-02
-2.627374264989893e-02 8.703046738903198e-03 9.474758962152420e-02
-2.627374264989893e-02 -8.703046738903226e-03 9.474758962152419e-02
1.257674520083185e-17 -8.758663179743850e-03 9.233005679298922e-02
4.946672411965114e-18 -1.477225460011500e-17 9.189988797621505e-02
-2.645806090808511e-02 -2.591243192240356e-17 9.431741038964001e-02
-1.312387267643838e-02 8.744759069533675e-03 9.293444000012296e-02
-1.312387267643839e-02 -8.744759069533696e-03 9.293444000012296e-02
-1.270632948577323e-02 -1.729302465114380e-17 7.228201955256107e-02
-1.347362543399034e-02 -1.013729031273947e-17 1.126731145552246e-01
-1.320817337842912e-02 -1.928524614308591e-17 9.250426857957128e-02
2.525436284842851e-02 -8.335406626078498e-03 7.545935094470249e-02
5.637851296924623e-18 -8.407511870415073e-03 7.195668959970243e-02
1.170938346284345e-17 -2.556143495083018e-02 7.490720249775255e-02
2.457090776255628e-02 -2.462224021070996e-02 7.853157122033076e-02
2.670231632640695e-02 -8.922314835981809e-03 1.143810030723665e-01
1.019150042136374e-17 -8.956871820690996e-03 1.126053927789349e-01
1.301042606982605e-18 -2.675806272913940e-02 1.141238786003127e-01
2.658140328921310e-02 -2.644545614567167e-02 1.160315792645803e-01
1.258649951946399e-02 -8.389485559330929e-03 7.283235493595244e-02
1.279358563532895e-17 -1.689974857572638e-02 7.324570090825962e-02
1.244955611391916e-02 -2.532663626580013e-02 7.581329467839711e-02
2.489808618241904e-02 -1.657481833527560e-02 7.677459829504113e-02
1.342519382118609e-02 -8.948232574513699e-03 1.130492953522928e-01
8.348356728138384e-18 -1.788560545814859e-02 1.133601319504250e-01
1.338317753093019e-02 -2.667991108327247e-02 1.146008037663796e-01
2.657321613894589e-02 -1.776425758139519e-02 1.151730171602558e-01
2.627374264989894e-02 -8.703046738903221e-03 9.474758962152421e-02
1.257674520083185e-17 -8.758663179743850e-03 9.233005679298922e-02
3.577867169202165e-18 -2.639131619871054e-02 9.438881865285426e-02
2.598396080634171e-02 -2.579475551690489e-02 9.693933505230284e-02
2.601697893082344e-02 -1.732749730285524e-02 9.572570521110305e-02
1.683223872783746e-17 -1.754615802435744e-02 9.327491607472968e-02
1.312387267643841e-02 -8.744759069533687e-03 9.293444000012298e-02
1.303895972481083e-02 -2.624217602825913e-02 9.502644775271638e-02
1.243243370176853e-02 -1.681851601561368e-02 7.412792525495498e-02
1.336625813581783e-02 -1.785526848896024e-02 1.138133532528827e-01
1.301834373654079e-02 -1.749149284398189e-02 9.388761335882304e-02
5.637851296924623e-18 -8.407511870415073e-03 7.195668959970243e-02
-2.525436284842851e-02 -8.335406626078495e-03 7.545935094470248e-02
-2.457090776255631e-02 -2.462224021071001e-02 7.853157122033068e-02
1.170938346284345e-17 -2.556143495083018e-02 7.490720249775255e-02
1.019150042136374e-17 -8.956871820690996e-03 1.126053927789349e-01
-2.670231632640693e-02 -8.922314835981831e-03 1.143810030723665e-01
-2.658140328921305e-02 -2.644545614567169e-02 1.160315792645801e-01
1.301042606982605e-18 -2.675806272913940e-02 1.141238786003127e-01
-1.258649951946398e-02 -8.389485559330931e-03 7.283235493595244e-02
-2.489808618241907e-02 -1.657481833527561e-02 7.677459829504112e-02
-1.244955611391915e-02 -2.532663626580013e-02 7.581329467839709e-02
1.279358563532895e-17 -1.689974857572638e-02 7.324570090825962e-02
-1.342519382118606e-02 -8.948232574513708e-03 1.130492953522928e-01
-2.657321613894588e-02 -1.776425758139522e-02 1.151730171602557e-01
-1.338317753093017e-02 -2.667991108327246e-02 1.146008037663796e-01
8.348356728138384e-18 -1.788560545814859e-02 1.133601319504250e-01
1.257674520083185e-17 -8.758663179743850e-03 9.233005679298922e-02
-2.627374264989893e-02 -8.703046738903226e-03 9.474758962152419e-02
-2.598396080634168e-02 -2.579475551690493e-02 9.693933505230271e-02
3.577867169202165e-18 -2.639131619871054e-02 9.438881865285426e-02
1.683223872783746e-17 -1.754615802435744e-02 9.327491607472968e-02
-2.601697893082345e-02 -1.732749730285525e-02 9.572570521110298e-02
-1.312387267643839e-02 -8.744759069533696e-03 9.293444000012296e-02
-1.303895972481082e-02 -2.624217602825912e-02 9.502644775271638e-02
-1.243243370176852e-02 -1.681851601561368e-02 7.412792525495497e-02
-1.336625813581781e-02 -1.785526848896024e-02 1.138133532528827e-01
-1.301834373654077e-02 -1.749149284398189e-02 9.388761335882304e-02
2.658140328921307e-02 2.644545614567163e-02 1.160315792645802e-01
9.107298248878237e-18 2.675806272913937e-02 1.141238786003126e-01
1.040834085586084e-17 8.956871820690979e-03 1.126053927789349e-01
2.670231632640696e-02 8.922314835981819e-03 1.143810030723665e-01
2.744753864110077e-02 2.719356163853895e-02 1.553974853928492e-01
1.994931997373328e-17 2.715378116167293e-02 1.539995169726857e-01
1.344410693882025e-17 9.267271717588878e-03 1.529457005363496e-01
2.731386783187743e-02 9.266345126175598e-03 1.541978243880778e-01
1.338317753093018e-02 2.667991108327245e-02 1.146008037663795e-01
1.057097118173367e-17 1.788560545814857e-02 1.133601319504250e-01
1.342519382118609e-02 8.948232574513684e-03 1.130492953522928e-01
2.657321613894590e-02 1.776425758139517e-02 1.151730171602557e-01
1.382180367986621e-02 2.716372628088944e-02 1.543490090777266e-01
2.461138931542095e-17 1.837253493740432e-02 1.535176367877371e-01
1.381275231041018e-02 9.267040069735565e-03 1.532587314992818e-01
2.733863191135276e-02 1.838132181735428e-02 1.548193423958721e-01
2.689275572839220e-02 2.682737916391479e-02 1.355902979978625e-01
4.119968255444917e-18 2.692458192312431e-02 1.340236791152243e-01
1.116728237660070e-17 9.095340448293623e-03 1.328036299094262e-01
2.692178950978799e-02 9.080863453133046e-03 1.342382088202207e-01
2.690202480103838e-02 1.805792410739499e-02 1.349323057020089e-01
7.887570804832045e-18 1.810032104114811e-02 1.334561162749070e-01
1.360364652003079e-02 2.690028123332194e-02 1.344153338358839e-01
1.361373101280927e-02 9.091721199503475e-03 1.331622746371248e-01
1.336625813581783e-02 1.785526848896022e-02 1.138133532528827e-01
1.381090178058295e-02 1.837473165739181e-02 1.538430631897710e-01
1.359187733777383e-02 1.808972180770983e-02 1.338251636316825e-01
9.107298248878237e-18 2.675806272913937e-02 1.141238786003126e-01
-2.658140328921305e-02 2.644545614567169e-02 1.160315792645802e-01
-2.670231632640694e-02 8.922314835981814e-03 1.143810030723665e-01
1.040834085586084e-17 8.956871820690979e-03 1.126053927789349e-01
1.994931997373328e-17 2.715378116167293e-02 1.539995169726857e-01
-2.744753864110089e-02 2.719356163853902e-02 1.553974853928490e-01
-2.731386783187748e-02 9.266345126175532e-03 1.541978243880779e-01
1.344410693882025e-17 9.267271717588878e-03 1.529457005363496e-01
-1.338317753093016e-02 2.667991108327244e-02 1.146008037663795e-01
-2.657321613894589e-02 1.776425758139519e-02 1.151730171602558e-01
-1.342519382118607e-02 8.948232574513692e-03 1.130492953522928e-01
1.057097118173367e-17 1.788560545814857e-02 1.133601319504250e-01
-1.382180367986621e-02 2.716372628088945e-02 1.543490090777265e-01
-2.733863191135284e-02 1.838132181735415e-02 1.548193423958722e-01
-1.381275231041017e-02 9.267040069735536e-03 1.532587314992816e-01
2.461138931542095e-17 1.837253493740432e-02 1.535176367877371e-01
4.119968255444917e-18 2.692458192312431e-02 1.340236791152243e-01
-2.689275572839219e-02 2.682737916391482e-02 1.355902979978625e-01
-2.692178950978797e-02 9.080863453133026e-03 1.342382088202207e-01
1.116728237660070e-17 9.095340448293623e-03 1.328036299094262e-01
7.887570804832045e-18 1.810032104114811e-02 1.334561162749070e-01
-2.690202480103837e-02 1.805792410739497e-02 1.349323057020089e-01
-1.360364652003078e-02 2.690028123332192e-02 1.344153338358838e-01
-1.361373101280925e-02 9.091721199503478e-03 1.331622746371248e-01
-1.336625813581781e-02 1.785526848896023e-02 1.138133532528827e-01
-1.381090178058293e-02 1.837473165739177e-02 1.538430631897708e-01
-1.359187733777383e-02 1.808972180770982e-02 1.338251636316825e-01
2.670231632640696e-02 8.922314835981819e-03 1.143810030723665e-01
1.040834085586084e-17 8.956871820690979e-03 1.126053927789349e-01
1.019150042136374e-17 -8.956871820690996e-03 1.126053927789349e-01
2.670231632640695e-02 -8.922314835981809e-03 1.143810030723665e-01
2.731386783187743e-02 9.266345126175598e-03 1.541978243880778e-01
1.344410693882025e-17 9.267271717588878e-03 1.529457005363496e-01
6.505213034913027e-18 -9.267271717588883e-03 1.529457005363496e-01
2.731386783187748e-02 -9.266345126175609e-03 1.541978243880781e-01
1.342519382118609e-02 8.948232574513684e-03 1.130492953522928e-01
1.067939139898222e-17 -1.398620802506301e-17 1.122302750627892e-01
1.342519382118609e-02 -8.948232574513699e-03 1.130492953522928e-01
2.680118825456956e-02 1.713039432527097e-17 1.140016330325308e-01
1.381275231041018e-02 9.267040069735565e-03 1.532587314992818e-01
2.168404344971009e-18 3.252606517456513e-18 1.526372183940462e-01
1.381275231041022e-02 -9.267040069735560e-03 1.532587314992817e-01
2.732252145470795e-02 -4.683753385137379e-17 1.538762216314764e-01
2.692178950978799e-02 9.080863453133046e-03 1.342382088202207e-01
1.116728237660070e-17 9.095340448293623e-03 1.328036299094262e-01
5.963111948670274e-18 -9.095340448293635e-03 1.328036299094261e-01
2.692178950978798e-02 -9.080863453133019e-03 1.342382088202207e-01
2.693429577318866e-02 2.244298497044994e-17 1.338821342328429e-01
1.073360150760649e-17 -8.836247705756861e-18 1.324561558453949e-01
1.361373101280927e-02 9.091721199503475e-03 1.331622746371248e-01
1.361373101280927e-02 -9.091721199503480e-03 1.331622746371248e-01
1.347362543399037e-02 -8.348356728138384e-18 1.126731145552246e-01
1.381686568260143e-02 2.547875105340935e-18 1.529469692034038e-01
1.363306356465008e-02 -2.940898392866931e-18 1.328126504422568e-01
1.040834085586084e-17 8.956871820690979e-03 1.126053927789349e-01
-2.670231632640694e-02 8.922314835981814e-03 1.143810030723665e-01
-2.670231632640693e-02 -8.922314835981831e-03 1.143810030723665e-01
1.019150042136374e-17 -8.956871820690996e-03 1.126053927789349e-01
1.344410693882025e-17 9.267271717588878e-03 1.529457005363496e-01
-2.731386783187748e-02 9.266345126175532e-03 1.541978243880779e-01
-2.731386783187749e-02 -9.266345126175598e-03 1.541978243880779e-01
6.505213034913027e-18 -9.267271717588883e-03 1.529457005363496e-01
-1.342519382118607e-02 8.948232574513692e-03 1.130492953522928e-01
-2.680118825456951e-02 -8.023096076392733e-18 1.140016330325307e-01
-1.342519382118606e-02 -8.948232574513708e-03 1.130492953522928e-01
1.067939139898222e-17 -1.398620802506301e-17 1.122302750627892e-01
-1.381275231041017e-02 9.267040069735536e-03 1.532587314992816e-01
-2.732252145470797e-02 -8.673617379884035e-19 1.538762216314764e-01
-1.381275231041021e-02 -9.267040069735567e-03 1.532587314992817e-01
2.168404344971009e-18 3.252606517456513e-18 1.526372183940462e-01
1.116728237660070e-17 9.095340448293623e-03 1.328036299094262e-01
-2.692178950978797e-02 9.080863453133026e-03 1.342382088202207e-01
-2.692178950978795e-02 -9.080863453133046e-03 1.342382088202206e-01
5.963111948670274e-18 -9.095340448293635e-03 1.328036299094261e-01
1.073360150760649e-17 -8.836247705756861e-18 1.324561558453949e-01
-2.693429577318863e-02 6.830473686658678e-18 1.338821342328428e-01
-1.361373101280925e-02 9.091721199503478e-03 1.331622746371248e-01
-1.361373101280925e-02 -9.091721199503489e-03 1.331622746371248e-01
-1.347362543399034e-02 -1.013729031273947e-17 1.126731145552246e-01
-1.381686568260143e-02 -1.019150042136374e-17 1.529469692034037e-01
-1.363306356465007e-02 -2.764715539838036e-18 1.328126504422568e-01
2.670231632640695e-02 -8.922314835981809e-03 1.143810030723665e-01
1.019150042136374e-17 -8.956871820690996e-03 1.126053927789349e-01
1.301042606982605e-18 -2.675806272913940e-02 1.141238786003127e-01
2.658140328921310e-02 -2.644545614567167e-02 1.160315792645803e-01
2.731386783187748e-02 -9.266345126175609e-03 1.541978243880781e-01
6.505213034913027e-18 -9.267271717588883e-03 1.529457005363496e-01
2.775557561562891e-17 -2.715378116167291e-02 1.539995169726854e-01
2.744753864110078e-02 -2.719356163853912e-02 1.553974853928490e-01
1.342519382118609e-02 -8.948232574513699e-03 1.130492953522928e-01
8.348356728138384e-18 -1.788560545814859e-02 1.133601319504250e-01
1.338317753093019e-02 -2.667991108327247e-02 1.146008037663796e-01
2.657321613894589e-02 -1.776425758139519e-02 1.151730171602558e-01
1.381275231041022e-02 -9.267040069735560e-03 1.532587314992817e-01
1.734723475976807e-17 -1.837253493740434e-02 1.535176367877369e-01
1.382180367986619e-02 -2.716372628088944e-02 1.543490090777263e-01
2.733863191135283e-02 -1.838132181735425e-02 1.548193423958724e-01
2.692178950978798e-02 -9.080863453133019e-03 1.342382088202207e-01
5.963111948670274e-18 -9.095340448293635e-03 1.328036299094261e-01
6.938893903907228e-18 -2.692458192312433e-02 1.340236791152243e-01
2.689275572839221e-02 -2.682737916391489e-02 1.355902979978625e-01
2.690202480103837e-02 -1.805792410739501e-02 1.349323057020090e-01
2.818925648462312e-18 -1.810032104114812e-02 1.334561162749070e-01
1.361373101280927e-02 -9.091721199503480e-03 1.331622746371248e-01
1.360364652003079e-02 -2.690028123332198e-02 1.344153338358839e-01
1.336625813581783e-02 -1.785526848896024e-02 1.138133532528827e-01
1.381090178058300e-02 -1.837473165739181e-02 1.538430631897708e-01
1.359187733777384e-02 -1.808972180770984e-02 1.338251636316825e-01