<?xml version="1.0" ?> 
<!-- 
# vtk DataFile Version 3.0
-->
<VTKFile type="UnstructuredGrid" version="0.1" compressor="vtkZLibDataCompressor" byte_order="LittleEndian">
  <UnstructuredGrid>
    <FieldData>
      <DataArray type="Float64" Name="TIME" NumberOfTuples="1" format="ascii">
2.500000000000000e-01 
      </DataArray>
    </FieldData>

    <Piece NumberOfPoints="408" NumberOfCells="0" >
      <Points>
        <DataArray type="Float64" NumberOfComponents="3" format="ascii">
-4.519375041894629e-02 -7.162178874902420e-02 -9.189036350416174e-02
2.698752609570280e-02 -3.179691040655153e-02 -3.672205557156129e-02
-4.444243358761990e-02 -7.006412752806637e-02 -9.174952002972984e-02
2.652780627802190e-02 -3.084354768112912e-02 -3.680878237118147e-02
-4.369548870893262e-02 -6.851551126403606e-02 -9.160945311307629e-02
2.607075983392008e-02 -2.989572417112930e-02 -3.689501467911430e-02
-4.295580524339390e-02 -6.698193127115566e-02 -9.147070623299491e-02
2.561815487612365e-02 -2.895710675896856e-02 -3.698041852278296e-02
-4.222624446489242e-02 -6.546932069388284e-02 -9.133381817884537e-02
2.517174229322781e-02 -2.803132667535800e-02 -3.706466304295939e-02
-4.150962839933325e-02 -6.398353155216303e-02 -9.119932092447638e-02
2.473324897857992e-02 -2.712196545212265e-02 -3.714742178317069e-02
-4.080872891617771e-02 -6.253031210052397e-02 -9.106773752412255e-02
2.430437115253219e-02 -2.623254106783504e-02 -3.722837396302033e-02
-4.012625701488306e-02 -6.111528458861529e-02 -9.093958003944491e-02
2.388676780383627e-02 -2.536649433983719e-02 -3.730720573026455e-02
-3.946485234748274e-02 -5.974392350924139e-02 -9.081534750675693e-02
2.348205427548280e-02 -2.452717561525744e-02 -3.738361138657074e-02
-3.882707301763463e-02 -5.842153441804392e-02 -9.069552395328773e-02
2.309179601972832e-02 -2.371783181246596e-02 -3.745729458199393e-02
-3.821538569539942e-02 -5.715323340677207e-02 -9.058057647109084e-02
2.271750254639038e-02 -2.294159386304088e-02 -3.752796947334289e-02
-3.763215608579579e-02 -5.594392730953850e-02 -9.047095335690752e-02
2.236062158774259e-02 -2.220146460275901e-02 -3.759536184176487e-02
-3.707963978781466e-02 -5.479829471860206e-02 -9.036708232595050e-02
2.202253350249641e-02 -2.150030715836737e-02 -3.765921016505794e-02
-3.655997357906590e-02 -5.372076788305449e-02 -9.026936880718664e-02
2.170454594042447e-02 -2.084083387495190e-02 -3.771926664041895e-02
-3.607516715956997e-02 -5.271551556030450e-02 -9.017819432727101e-02
2.140788878815494e-02 -2.022559582658340e-02 -3.777529815355577e-02
-3.562709538638739e-02 -5.178642688643621e-02 -9.009391498982537e-02
2.113370941554366e-02 -1.965697295058405e-02 -3.782708719033080e-02
-3.521749102875956e-02 -5.093709632728753e-02 -9.001686005625419e-02
2.088306824078614e-02 -1.913716484316516e-02 -3.787443268736545e-02
-3.484793807111973e-02 -5.017080976724877e-02 -8.994733063374098e-02
2.065693463100924e-02 -1.866818225122705e-02 -3.791715081833096e-02
-3.451986558840849e-02 -4.949053178667479e-02 -8.988559847540925e-02
2.045618315328360e-02 -1.825183929137174e-02 -3.795507571301435e-02
-3.423454221361428e-02 -4.889889416940380e-02 -8.983190489668487e-02
2.028159018823351e-02 -1.788974642143518e-02 -3.798806010679411e-02
-3.399307120771790e-02 -4.839818566163868e-02 -8.978645980997856e-02
2.013383091245401e-02 -1.758330417746252e-02 -3.801597591930635e-02
-3.379638611129603e-02 -4.799034293929004e-02 -8.974944087391487e-02
2.001347663702056e-02 -1.733369764979309e-02 -3.803871476467410e-02
-3.364524681514115e-02 -4.767694244661464e-02 -8.972099272656797e-02
1.992099240254769e-02 -1.714189149183623e-02 -3.805618841209091e-02
-3.354023489574981e-02 -4.745919071297877e-02 -8.970122608548206e-02
1.985673412453473e-02 -1.700862399681845e-02 -3.806832933019386e-02
-3.348173299985818e-02 -4.733788159635439e-02 -8.969021385025867e-02
1.982093597820227e-02 -1.693438093251705e-02 -3.807509307442679e-02
-3.345429754853559e-02 -4.728099160633233e-02 -8.968504940647025e-02
1.980414783111062e-02 -1.689956338159699e-02 -3.807826506291428e-02
-3.339579571913827e-02 -4.715968248846979e-02 -8.967403688438491e-02
1.976834971584161e-02 -1.682532034614559e-02 -3.808502886973095e-02
-3.329078414620909e-02 -4.694193074838220e-02 -8.965426874863199e-02
1.970409159968174e-02 -1.669205300144778e-02 -3.809717011392042e-02
-3.313964586074213e-02 -4.662853023688600e-02 -8.962581624109207e-02
1.961160783736125e-02 -1.650024728199915e-02 -3.811464471258612e-02
-3.294296298439085e-02 -4.622068747319583e-02 -8.958878772745653e-02
1.949125459905459e-02 -1.625064171755389e-02 -3.813738564746101e-02
-3.270149610340396e-02 -4.571997888861768e-02 -8.954332484554231e-02
1.934349725026409e-02 -1.594420126325729e-02 -3.816530534229522e-02
-3.241617959053840e-02 -4.512834114356565e-02 -8.948960166387840e-02
1.916890749082375e-02 -1.558211137050270e-02 -3.819829619445171e-02
-3.208811765934695e-02 -4.444806296650401e-02 -8.942782398539945e-02
1.896816094232578e-02 -1.516577298861638e-02 -3.823623102011920e-02
-3.171857999695921e-02 -4.368177612164111e-02 -8.935822857787756e-02
1.874203447783490e-02 -1.469679703277126e-02 -3.827896354682625e-02
-3.130899681301923e-02 -4.283244516820162e-02 -8.928108229922957e-02
1.849140319448835e-02 -1.417699811184021e-02 -3.832632897233735e-02
-3.086095328437853e-02 -4.190335596837083e-02 -8.919668111244575e-02
1.821723701642722e-02 -1.360838749000482e-02 -3.837814459262610e-02
-3.037618340609688e-02 -4.089810296515999e-02 -8.910534899064701e-02
1.792059693444485e-02 -1.299316529520748e-02 -3.843421049805820e-02
-2.985656326906975e-02 -3.982057527167694e-02 -8.900743671458664e-02
1.760263089471249e-02 -1.233371199992157e-02 -3.849431033579383e-02
-2.930410378913487e-02 -3.867494162268985e-02 -8.890332056578162e-02
1.726456935172225e-02 -1.163257920547897e-02 -3.855821213589122e-02
-2.872094291544518e-02 -3.746563424547408e-02 -8.879340091906274e-02
1.690772050238459e-02 -1.089247976492629e-02 -3.862566919824045e-02
-2.810933734821756e-02 -3.619733171178214e-02 -8.867810073886166e-02
1.653346521964863e-02 -1.011627728235507e-02 -3.869642103716653e-02
-2.747165379798199e-02 -3.487494083700184e-02 -8.855786398405806e-02
1.614325170525334e-02 -9.306975029235139e-03 -3.877019438027639e-02
-2.681035982027098e-02 -3.350357769639366e-02 -8.843315392670598e-02
1.573858988233985e-02 -8.467704320620191e-03 -3.884670421787788e-02
-2.612801426132998e-02 -3.208854783177095e-02 -8.830445139044897e-02
1.532104554967022e-02 -7.601712396217829e-03 -3.892565489906524e-02
-2.542725735192183e-02 -3.063532572516114e-02 -8.817225291491301e-02
1.489223432012351e-02 -6.712349853253906e-03 -3.900674127034472e-02
-2.471080048763175e-02 -2.914953361883720e-02 -8.803706885282951e-02
1.445381536696837e-02 -5.803057679799691e-03 -3.908964985246972e-02
-2.398141573526316e-02 -2.763691976365205e-02 -8.789942140708254e-02
1.400748500214863e-02 -4.877353938780914e-03 -3.917406005096420e-02
-2.324192510594067e-02 -2.610333617982633e-02 -8.775984261528515e-02
1.355497011145763e-02 -3.938820154234968e-03 -3.925964539564386e-02
-2.249518963640695e-02 -2.455471601623381e-02 -8.761887228986474e-02
1.309802147202120e-02 -2.991087452532657e-03 -3.934607480429198e-02
-2.174409832070979e-02 -2.299705059578338e-02 -8.747705592197058e-02
1.263840697795317e-02 -2.037822512222799e-03 -3.943301386551831e-02
-2.099155693502563e-02 -2.143636623571597e-02 -8.733494255779868e-02
1.217790480039173e-02 -1.082713376890464e-03 -3.952012613572303e-02
-2.024047679875253e-02 -1.987870093250586e-02 -8.719308265616088e-02
1.171829650836880e-02 -1.294551859441590e-04 -3.960707444500533e-02
-1.949376351523030e-02 -1.833008100158169e-02 -8.705202593629589e-02
1.126136017710494e-02 8.182641214474428e-04 -3.969352220680030e-02
-1.875430573550527e-02 -1.679649776225501e-02 -8.691231922503308e-02
1.080886351036365e-02 1.756778073949731e-03 -3.977913472599707e-02
-1.802496398845700e-02 -1.528388435807362e-02 -8.677450431246729e-02
1.036255700343459e-02 2.682455851991691e-03 -3.986358050028761e-02
-1.730855962033690e-02 -1.379809280228547e-02 -8.663911582529109e-02
9.924210621377993e-03 3.591625554451248e-03 -3.994652317405073e-02
-1.660786388634429e-02 -1.234487133723205e-02 -8.650667912685245e-02
9.495484880458887e-03 4.480841596880992e-03 -4.002764597456453e-02
-1.592558723627696e-02 -1.092984219526776e-02 -8.637770825286922e-02
9.078026388653097e-03 5.346688688941712e-03 -4.010663721806693e-02
-1.526436883554911e-02 -9.558479847247578e-03 -8.625270389153669e-02
8.673450224324239e-03 6.185816980014368e-03 -4.018319126399667e-02
-1.462676636196693e-02 -8.236089822731251e-03 -8.613215141651233e-02
8.283321627019826e-03 6.994979985794319e-03 -4.025701189753472e-02
-1.401524611759729e-02 -6.967788183833725e-03 -8.601651898096455e-02
7.909149941614848e-03 7.771047149337280e-03 -4.032781347626383e-02
-1.343217349385752e-02 -5.758481732109557e-03 -8.590625568052428e-02
7.552382778691396e-03 8.511015953654218e-03 -4.039532203596252e-02
-1.287980382659795e-02 -4.612849025002388e-03 -8.580178979259574e-02
7.214400413736490e-03 9.212023539006768e-03 -4.045927635124749e-02
-1.236027367644535e-02 -3.535322275226143e-03 -8.570352709906354e-02
6.896510446807697e-03 9.871357779988597e-03 -4.051942894695423e-02
-1.187559256801831e-02 -2.530070202959126e-03 -8.561184929898476e-02
6.599942743288512e-03 1.048646777960955e-02 -4.057554705634038e-02
-1.142763521980892e-02 -1.600981906916391e-03 -8.552711251738208e-02
6.325844675229011e-03 1.105497373993559e-02 -4.062741352240899e-02
-1.101813429450761e-02 -7.516518161365428e-04 -8.544964591574992e-02
6.075276681519967e-03 1.157467617142518e-02 -4.067482763888557e-02
-1.064867369722964e-02 1.463422053217490e-05 -8.537975040934058e-02
5.849208163717469e-03 1.204356440607074e-02 -4.071760592765380e-02
-1.032068244617879e-02 6.949116563597512e-04 -8.531769749565324e-02
5.648513732535949e-03 1.245982438318686e-02 -4.075558284979564e-02
-1.003542913576269e-02 1.286548738597564e-03 -8.526372819762318e-02
[...]
  <PointData>
        <DataArray type="Float64" Name="force" NumberOfComponents="3" format="ascii">
2.116357504209700e-05 1.167646916492100e-05 1.617532322125273e-05
-2.116357504209700e-05 -1.167646916492100e-05 -1.617532322125273e-05
2.222758414003490e-05 1.228351745803341e-05 1.720716494787779e-05
-2.222758414003490e-05 -1.228351745803341e-05 -1.720716494787779e-05
2.335814595442422e-05 1.292991770230082e-05 1.831866435463476e-05
-2.335814595442422e-05 -1.292991770230082e-05 -1.831866435463476e-05
2.455539487356838e-05 1.361594966637023e-05 1.951217449204956e-05
-2.455539487356838e-05 -1.361594966637023e-05 -1.951217449204956e-05
2.581858725694807e-05 1.434139125832461e-05 2.078918698817331e-05
-2.581858725694807e-05 -1.434139125832461e-05 -2.078918698817331e-05
2.714592627994361e-05 1.510541129396477e-05 2.215008229967188e-05
-2.714592627994361e-05 -1.510541129396477e-05 -2.215008229967188e-05
2.853437955461016e-05 1.590645648950546e-05 2.359385484907481e-05
-2.853437955461016e-05 -1.590645648950546e-05 -2.359385484907481e-05
2.997949595969866e-05 1.674213639777617e-05 2.511781981908017e-05
-2.997949595969866e-05 -1.674213639777617e-05 -2.511781981908017e-05
3.147523016262657e-05 1.760911132358791e-05 2.671731197422417e-05
-3.147523016262657e-05 -1.760911132358791e-05 -2.671731197422417e-05
3.301378539910975e-05 1.850298962624014e-05 2.838539091330235e-05
-3.301378539910975e-05 -1.850298962624014e-05 -2.838539091330235e-05
3.458548700244401e-05 1.941824212931350e-05 3.011257135760674e-05
-3.458548700244401e-05 -1.941824212931350e-05 -3.011257135760674e-05
3.617870069696191e-05 2.034814245405973e-05 3.188660104742220e-05
-3.617870069696191e-05 -2.034814245405973e-05 -3.188660104742220e-05
3.777981049627173e-05 2.128474278240624e-05 3.369231201163371e-05
-3.777981049627173e-05 -2.128474278240624e-05 -3.369231201163371e-05
3.937327086176707e-05 2.221889462752969e-05 3.551157274010392e-05
-3.937327086176707e-05 -2.221889462752969e-05 -3.551157274010392e-05
4.094174628136566e-05 2.314032343549188e-05 3.732336842036942e-05
-4.094174628136566e-05 -2.314032343549188e-05 -3.732336842036942e-05
4.246634838895623e-05 2.403776408755482e-05 3.910403323715706e-05
-4.246634838895623e-05 -2.403776408755482e-05 -3.910403323715706e-05
4.392697605201844e-05 2.489916152193563e-05 4.082765228522815e-05
-4.392697605201844e-05 -2.489916152193563e-05 -4.082765228522815e-05
4.530275758039483e-05 2.571193676500910e-05 4.246664074180096e-05
-4.530275758039483e-05 -2.571193676500910e-05 -4.246664074180096e-05
4.657258665271423e-05 2.646331382587074e-05 4.399249487104832e-05
-4.657258665271423e-05 -2.646331382587074e-05 -4.399249487104832e-05
4.771573526633339e-05 2.714069750575470e-05 4.537669403288767e-05
-4.771573526633339e-05 -2.714069750575470e-05 -4.537669403288767e-05
4.871251877715271e-05 2.773208671371548e-05 4.659171656652541e-05
-4.871251877715271e-05 -2.773208671371548e-05 -4.659171656652541e-05
4.954498090714368e-05 2.822650302354358e-05 4.761211718044860e-05
-4.954498090714368e-05 -2.822650302354358e-05 -4.761211718044860e-05
5.019756183709233e-05 2.861441085760477e-05 4.841560192974187e-05
-5.019756183709233e-05 -2.861441085760477e-05 -4.841560192974187e-05
5.065771433810258e-05 2.888810641025047e-05 4.898403513174626e-05
-5.065771433810258e-05 -2.888810641025047e-05 -4.898403513174626e-05
5.091649630691822e-05 2.904209002416265e-05 4.930438963355912e-05
-5.091649630691822e-05 -2.904209002416265e-05 -4.930438963355912e-05
5.103846137752832e-05 2.911467856498235e-05 4.945554259790783e-05
-5.103846137752832e-05 -2.911467856498235e-05 -4.945554259790783e-05
5.129983165208499e-05 2.927026841379978e-05 4.977982492490649e-05
-5.129983165208499e-05 -2.927026841379978e-05 -4.977982492490649e-05
5.177347111841021e-05 2.955233367233823e-05 5.036872548979733e-05
-5.177347111841021e-05 -2.955233367233823e-05 -5.036872548979733e-05
5.246540385727392e-05 2.996466280677170e-05 5.123193421951986e-05
-5.246540385727392e-05 -2.996466280677170e-05 -5.123193421951986e-05
5.338434819064010e-05 3.051275141352640e-05 5.238361448929919e-05
-5.338434819064010e-05 -3.051275141352640e-05 -5.238361448929919e-05
5.454197072954790e-05 3.120396874041806e-05 5.384288573145399e-05
-5.454197072954790e-05 -3.120396874041806e-05 -5.384288573145399e-05
5.595312589974808e-05 3.204772153732541e-05 5.563435344198059e-05
-5.595312589974808e-05 -3.204772153732541e-05 -5.563435344198059e-05
5.763615374987552e-05 3.305565965862713e-05 5.778878876937324e-05
-5.763615374987552e-05 -3.305565965862713e-05 -5.778878876937324e-05
5.961324766060161e-05 3.424193178842260e-05 6.034398803131067e-05
-5.961324766060161e-05 -3.424193178842260e-05 -6.034398803131067e-05
6.191090049037931e-05 3.562349826251056e-05 6.334584347795129e-05
-6.191090049037931e-05 -3.562349826251056e-05 -6.334584347795129e-05
6.456043837406791e-05 3.722050889776660e-05 6.684966328564090e-05
-6.456043837406791e-05 -3.722050889776660e-05 -6.684966328564090e-05
6.759865249527554e-05 3.905675504502825e-05 7.092178723154993e-05
-6.759865249527554e-05 -3.905675504502825e-05 -7.092178723154993e-05
7.106854018794760e-05 4.116020648707261e-05 7.564155443069168e-05
-7.106854018794760e-05 -4.116020648707261e-05 -7.564155443069168e-05
7.502016747003653e-05 4.356364520584150e-05 8.110369093337833e-05
-7.502016747003653e-05 -4.356364520584150e-05 -8.110369093337833e-05
7.951166533786306e-05 4.630540932951113e-05 8.742119787930458e-05
-7.951166533786306e-05 -4.630540932951113e-05 -8.742119787930458e-05
8.461037153512522e-05 4.943026157243725e-05 9.472883512944897e-05
-8.461037153512522e-05 -4.943026157243725e-05 -9.472883512944897e-05
9.039412761139510e-05 5.299039694661146e-05 1.031873104239018e-04
-9.039412761139510e-05 -5.299039694661146e-05 -1.031873104239018e-04
9.695273729183570e-05 5.704660407977367e-05 1.129882992835905e-04
-9.695273729183570e-05 -5.704660407977367e-05 -1.129882992835905e-04
1.043895856733996e-04 6.166959258846287e-05 1.243604345610081e-04
-1.043895856733996e-04 -6.166959258846287e-05 -1.243604345610081e-04
1.128234084667775e-04 6.694149487529657e-05 1.375764142303847e-04
-1.128234084667775e-04 -6.694149487529657e-05 -1.375764142303847e-04
1.223901850430736e-04 7.295754342473409e-05 1.529613777351555e-04
-1.223901850430736e-04 -7.295754342473409e-05 -1.529613777351555e-04
1.332451067202115e-04 7.982791279551205e-05 1.709026890020527e-04
-1.332451067202115e-04 -7.982791279551205e-05 -1.709026890020527e-04
1.455645405252042e-04 8.767969728410062e-05 1.918612293546014e-04
-1.455645405252042e-04 -8.767969728410062e-05 -1.918612293546014e-04
1.595478663546516e-04 9.665896845491852e-05 2.163842336679817e-04
-1.595478663546516e-04 -9.665896845491852e-05 -2.163842336679817e-04
1.754190097618255e-04 1.069328187680385e-04 2.451195813386146e-04
-1.754190097618255e-04 -1.069328187680385e-04 -2.451195813386146e-04
1.934274216230918e-04 1.186912454460802e-04 2.788312578577676e-04
-1.934274216230918e-04 -1.186912454460802e-04 -2.788312578577676e-04
2.138481688006986e-04 1.321486595606746e-04 3.184154053248243e-04
-2.138481688006986e-04 -1.321486595606746e-04 -3.184154053248243e-04
2.369806977850405e-04 1.475447166993998e-04 3.649159488425633e-04
-2.369806977850405e-04 -1.475447166993998e-04 -3.649159488425633e-04
2.631457208186809e-04 1.651440566476738e-04 4.195381865477116e-04
-2.631457208186809e-04 -1.651440566476738e-04 -4.195381865477116e-04
2.926795612046030e-04 1.852344124843226e-04 4.836579351631469e-04
-2.926795612046030e-04 -1.852344124843226e-04 -4.836579351631469e-04
3.259253229785993e-04 2.081221246191995e-04 5.588228428033356e-04
-3.259253229785993e-04 -2.081221246191995e-04 -5.588228428033356e-04
3.632199552730565e-04 2.341242454898403e-04 6.467410710419279e-04
-3.632199552730565e-04 -2.341242454898403e-04 -6.467410710419279e-04
4.048751430512588e-04 2.635600875794503e-04 7.492517602627375e-04
-4.048751430512588e-04 -2.635600875794503e-04 -7.492517602627375e-04
4.511552376843715e-04 2.967318561647889e-04 8.682702660232242e-04
-4.511552376843715e-04 -2.967318561647889e-04 -8.682702660232242e-04
5.022475399782038e-04 3.339034977916653e-04 1.005699765807502e-03
-5.022475399782038e-04 -3.339034977916653e-04 -1.005699765807502e-03
5.582276208739652e-04 3.752721757676169e-04 1.163301875171713e-03
-5.582276208739652e-04 -3.752721757676169e-04 -1.163301875171713e-03
6.190203448057561e-04 4.209333636854155e-04 1.342520024165258e-03
-6.190203448057561e-04 -4.209333636854155e-04 -1.342520024165258e-03
6.843588373042893e-04 4.708404337445292e-04 1.544253358743451e-03
-6.843588373042893e-04 -4.708404337445292e-04 -1.544253358743451e-03
7.537448750727925e-04 5.247608371175333e-04 1.768585774015249e-03
-7.537448750727925e-04 -5.247608371175333e-04 -1.768585774015249e-03
8.264153851494462e-04 5.822324762600454e-04 2.014484770205373e-03
-8.264153851494462e-04 -5.822324762600454e-04 -2.014484770205373e-03
9.013206494833181e-04 6.425254831703453e-04 2.279497706049078e-03
-9.013206494833181e-04 -6.425254831703453e-04 -2.279497706049078e-03
9.771200959918633e-04 7.046160395172179e-04 2.559487104098419e-03
-9.771200959918633e-04 -7.046160395172179e-04 -2.559487104098419e-03
1.052200909938913e-03 7.671796805611288e-04 2.848458916383245e-03
-1.052200909938913e-03 -7.671796805611288e-04 -2.848458916383245e-03
1.124722940004781e-03 8.286112367595479e-04 3.138543799163268e-03
-1.124722940004781e-03 -8.286112367595479e-04 -3.138543799163268e-03
1.192690556649528e-03 8.870767773394423e-04 3.420186715233115e-03
-1.192690556649528e-03 -8.870767773394423e-04 -3.420186715233115e-03
1.254048596888552e-03 9.405994589496900e-04 3.682580865744422e-03
-1.254048596888552e-03 -9.405994589496900e-04 -3.682580865744422e-03
1.306795912563928e-03 9.871762795814764e-04 3.914347329524131e-03
-1.306795912563928e-03 -9.871762795814764e-04 -3.914347329524131e-03
1.349107076187323e-03 1.024917121776313e-03 4.104415890697412e-03
-1.349107076187323e-03 -1.024917121776313e-03 -4.104415890697412e-03
1.379451327665311e-03 1.052192460593752e-03 4.243015412711082e-03
-1.379451327665311e-03 -1.052192460593752e-03 -4.243015412711082e-03
1.396701833475311e-03 1.067776318651983e-03 4.322663309526335e-03
-1.396701833475311e-03 -1.067776318651983e-03 -4.322663309526335e-03
1.404878390980890e-03 1.075182699621331e-03 4.360632547969593e-03
-1.404878390980890e-03 -1.075182699621331e-03 -4.360632547969593e-03
1.422500662242635e-03 1.091188443137430e-03 4.442939923810420e-03
-1.422500662242635e-03 -1.091188443137430e-03 -4.442939923810420e-03
1.454782146685280e-03 1.120662762412635e-03 4.595404052784103e-03
-1.454782146685280e-03 -1.120662762412635e-03 -4.595404052784103e-03
1.502746991344463e-03 1.164826466847392e-03 4.825993484759370e-03
-1.502746991344463e-03 -1.164826466847392e-03 -4.825993484759370e-03
1.567926195106197e-03 1.225554208160193e-03 5.147164718646281e-03
-1.567926195106197e-03 -1.225554208160193e-03 -5.147164718646281e-03
1.652430198240366e-03 1.305525271828480e-03 5.577131327430877e-03
-1.652430198240366e-03 -1.305525271828480e-03 -5.577131327430877e-03
1.759036521621895e-03 1.408440819482842e-03 6.141781870805135e-03
-1.759036521621895e-03 -1.408440819482842e-03 -6.141781870805135e-03
1.891292268748081e-03 1.539337469429282e-03 6.877575150407935e-03
-1.891292268748081e-03 -1.539337469429282e-03 -6.877575150407935e-03
2.053618501980178e-03 1.705036078853782e-03 7.835907390253883e-03
-2.053618501980178e-03 -1.705036078853782e-03 -7.835907390253883e-03
2.251384662953154e-03 1.914782706324932e-03 9.089744028501746e-03
-2.251384662953154e-03 -1.914782706324932e-03 -9.089744028501746e-03
2.490882613190341e-03 2.181165036521333e-03 1.074380102812145e-02
-2.490882613190341e-03 -2.181165036521333e-03 -1.074380102812145e-02
2.779051003327083e-03 2.521424382086725e-03 1.295038105179586e-02
-2.779051003327083e-03 -2.521424382086725e-03 -1.295038105179586e-02
3.122640420152674e-03 2.959331953403364e-03 1.593434906808186e-02
-3.122640420152674e-03 -2.959331953403364e-03 -1.593434906808186e-02
3.526184702552520e-03 3.527853463378544e-03 2.003305652260355e-02
-3.526184702552520e-03 -3.527853463378544e-03 -2.003305652260355e-02
3.987484968197709e-03 4.272862931853105e-03 2.576090792932412e-02
-3.987484968197709e-03 -4.272862931853105e-03 -2.576090792932412e-02
4.487981900001563e-03 5.258098826006717e-03 3.391455450539688e-02
-4.487981900001563e-03 -5.258098826006717e-03 -3.391455450539688e-02
4.972734683150220e-03 6.571125144991808e-03 4.574402147498468e-02
-4.972734683150220e-03 -6.571125144991808e-03 -4.574402147498468e-02
5.309594461872995e-03 8.328523191100078e-03 6.322534151707555e-02
-5.309594461872995e-03 -8.328523191100078e-03 -6.322534151707555e-02
5.208130168810195e-03 1.067378589591199e-02 8.946587909518454e-02
-5.208130168810195e-03 -1.067378589591199e-02 -8.946587909518454e-02
4.067399877893603e-03 1.374751760269856e-02 1.291821050944529e-01
-4.067399877893603e-03 -1.374751760269856e-02 -1.291821050944529e-01
7.312542661106445e-04 1.757126772925466e-02 1.887193952432431e-01
-7.312542661106445e-04 -1.757126772925466e-02 -1.887193952432431e-01
-6.702908826169627e-03 2.169557320213097e-02 2.732050848811326e-01
6.702908826169627e-03 -2.169557320213097e-02 -2.732050848811326e-01
-1.998701827242189e-02 2.435404478088679e-02 3.725366524788227e-01
1.998701827242189e-02 -2.435404478088679e-02 -3.725366524788227e-01
-3.489095714808882e-02 2.135865667775890e-02 4.184604899052101e-01
3.489095714808882e-02 -2.135865667775890e-02 -4.184604899052101e-01
-2.552865109630656e-02 8.192843094183501e-03 2.246902816190202e-01
2.552865109630656e-02 -8.192843094183501e-03 -2.246902816190202e-01
5.590260523496561e-02 -8.405642355253384e-03 -3.875206978945577e-01
-5.590260523496561e-02 8.405642355253384e-03 3.875206978945577e-01
1.865723393728441e-01 -7.219702221159142e-03 -1.064992085366017e+00
-1.865723393728441e-01 7.219702221159142e-03 1.064992085366017e+00
2.097651289049159e-01 8.353869075571259e-03 -1.016856153648765e+00
-2.097651289049159e-01 -8.353869075571259e-03 1.016856153648765e+00
7.671886627193129e-02 7.507019373557662e-03 -3.231105244903004e-01
-7.671886627193129e-02 -7.507019373557662e-03 3.231105244903004e-01
-6.323180300196217e-02 -8.999132139029913e-03 2.354903405330710e-01
6.323180300196217e-02 8.999132139029913e-03 -2.354903405330710e-01
-1.204271655264329e-01 -2.135790449504870e-02 4.022612848854741e-01
1.204271655264329e-01 2.135790449504870e-02 -4.022612848854741e-01
-1.186665209430691e-01 -2.439161663609353e-02 3.597079063065609e-01
1.186665209430691e-01 2.439161663609353e-02 -3.597079063065609e-01
-9.721298579515168e-02 -2.222590343493011e-02 2.700821687472286e-01
9.721298579515168e-02 2.222590343493011e-02 -2.700821687472286e-01
-7.488901798863051e-02 -1.855647242547754e-02 1.923379794632657e-01
7.488901798863051e-02 1.855647242547754e-02 -1.923379794632657e-01
-5.690642574657829e-02 -1.501501846842604e-02 1.361313380728444e-01
5.690642574657829e-02 1.501501846842604e-02 -1.361313380728444e-01
-4.352265471261237e-02 -1.207530231857386e-02 9.763011602188787e-02
4.352265471261237e-02 1.207530231857386e-02 -9.763011602188787e-02
-3.379531445159622e-02 -9.767699404481146e-03 7.152172282469955e-02
3.379531445159622e-02 9.767699404481146e-03 -7.152172282469955e-02
-2.674025135650977e-02 -7.993483756481774e-03 5.368785958558180e-02
2.674025135650977e-02 7.993483756481774e-03 -5.368785958558180e-02
-2.158788716515403e-02 -6.636811240019707e-03 4.133167951407580e-02
2.158788716515403e-02 6.636811240019707e-03 -4.133167951407580e-02
-1.778586624942429e-02 -5.597886961142593e-03 3.262825643885006e-02
1.778586624942429e-02 5.597886961142593e-03 -3.262825643885006e-02
-1.494906115816276e-02 -4.798835071781393e-03 2.639607586695906e-02
1.494906115816276e-02 4.798835071781393e-03 -2.639607586695906e-02
-1.281082431807612e-02 -4.181280220116472e-03 2.186595251922522e-02
1.281082431807612e-02 4.181280220116472e-03 -2.186595251922522e-02
-1.118608550678477e-02 -3.702198014919274e-03 1.853151380888103e-02
1.118608550678477e-02 3.702198014919274e-03 -1.853151380888103e-02
-9.945582829124210e-03 -3.330083690616703e-03 1.605502616647840e-02
9.945582829124210e-03 3.330083690616703e-03 -1.605502616647840e-02
-8.998407002876730e-03 -3.041921235213522e-03 1.420837639908517e-02
8.998407002876730e-03 3.041921235213522e-03 -1.420837639908517e-02
-8.280301826011020e-03 -2.820932149010191e-03 1.283592432538117e-02
8.280301826011020e-03 2.820932149010191e-03 -1.283592432538117e-02
-7.745843363866171e-03 -2.654954584492481e-03 1.183094181955660e-02
7.745843363866171e-03 2.654954584492481e-03 -1.183094181955660e-02
-7.363218661381077e-03 -2.535298827548190e-03 1.112056719034807e-02
7.363218661381077e-03 2.535298827548190e-03 -1.112056719034807e-02
-7.110759103932980e-03 -2.455953799835780e-03 1.065618402514549e-02
7.110759103932980e-03 2.455953799835780e-03 -1.065618402514549e-02
-6.974650413100120e-03 -2.413042529121410e-03 1.040728874474021e-02
6.974650413100120e-03 2.413042529121410e-03 -1.040728874474021e-02
-6.911905651119292e-03 -2.393228729522752e-03 1.029290260472117e-02
6.911905651119292e-03 2.393228729522752e-03 -1.029290260472117e-02
-6.780376862489950e-03 -2.351627402856857e-03 1.005385071783637e-02
6.780376862489950e-03 2.351627402856857e-03 -1.005385071783637e-02
-6.551794840862614e-03 -2.279110883310433e-03 9.640796925626579e-03
6.551794840862614e-03 2.279110883310433e-03 -9.640796925626579e-03
-6.238962980426832e-03 -2.179405417390484e-03 9.080555184274954e-03
6.238962980426832e-03 2.179405417390484e-03 -9.080555184274954e-03
-5.858535031358884e-03 -2.057409691232116e-03 8.407434928465584e-03
5.858535031358884e-03 2.057409691232116e-03 -8.407434928465584e-03
-5.429276281554330e-03 -1.918721682114128e-03 7.659238791377541e-03
5.429276281554330e-03 1.918721682114128e-03 -7.659238791377541e-03
-4.970333976921099e-03 -1.769156318942598e-03 6.873409877334608e-03
4.970333976921099e-03 1.769156318942598e-03 -6.873409877334608e-03
-4.499718054555658e-03 -1.614304974479712e-03 6.083831863181670e-03
4.499718054555658e-03 1.614304974479712e-03 -6.083831863181670e-03
-4.033153697464531e-03 -1.459183254361467e-03 5.318626089545221e-03
4.033153697464531e-03 1.459183254361467e-03 -5.318626089545221e-03
-3.583379242437498e-03 -1.307993378901680e-03 4.599045980821535e-03
3.583379242437498e-03 1.307993378901680e-03 -4.599045980821535e-03
-3.159878492520295e-03 -1.164005892517436e-03 3.939359046166682e-03
3.159878492520295e-03 1.164005892517436e-03 -3.939359046166682e-03
-2.768974312504363e-03 -1.029547605384219e-03 3.347473608313405e-03
2.768974312504363e-03 1.029547605384219e-03 -3.347473608313405e-03
-2.414177823363566e-03 -9.060713268151617e-04 2.826019688376231e-03
2.414177823363566e-03 9.060713268151617e-04 -2.826019688376231e-03
-2.096682520121279e-03 -7.942786124571839e-04 2.373614638226548e-03
2.096682520121279e-03 7.942786124571839e-04 -2.373614638226548e-03
-1.815907407898155e-03 -6.942682108402832e-04 1.986106119825143e-03
1.815907407898155e-03 6.942682108402832e-04 -1.986106119825143e-03
-1.570018227332992e-03 -6.056880642873418e-04 1.657660350349953e-03
1.570018227332992e-03 6.056880642873418e-04 -1.657660350349953e-03
-1.356382769157929e-03 -5.278754285424343e-04 1.381632289372736e-03
1.356382769157929e-03 5.278754285424343e-04 -1.381632289372736e-03
-1.171939694325402e-03 -4.599762293988416e-04 1.151206347695175e-03
1.171939694325402e-03 4.599762293988416e-04 -1.151206347695175e-03
-1.013477628264071e-03 -4.010401555028098e-04 9.598289123767271e-04
1.013477628264071e-03 4.010401555028098e-04 -9.598289123767271e-04
-8.778322636226237e-04 -3.500918029943117e-04 8.014700973164297e-04
8.778322636226237e-04 3.500918029943117e-04 -8.014700973164297e-04
-7.620147706486295e-04 -3.061804916370166e-04 6.707562814417810e-04
7.620147706486295e-04 3.061804916370166e-04 -6.707562814417810e-04
-6.632864708756641e-04 -2.684124537217588e-04 5.630118949106096e-04
6.632864708756641e-04 2.684124537217588e-04 -5.630118949106096e-04