<?xml version="1.0" ?> 
<!-- 
# vtk DataFile Version 3.0
-->
<VTKFile type="UnstructuredGrid" version="0.1" compressor="vtkZLibDataCompressor" byte_order="LittleEndian">
  <UnstructuredGrid>
    <FieldData>
      <DataArray type="Float64" Name="TIME" NumberOfTuples="1" format="ascii">
4.999999999999999e-01 
      </DataArray>
    </FieldData>

    <Piece NumberOfPoints="448" NumberOfCells="0" >
      <Points>
        <DataArray type="Float64" NumberOfComponents="3" format="ascii">
-3.897240974572803e-02 5.187987402133661e-03 -1.622579333908202e-01
2.329751045223139e-02 4.364682188731722e-02 -9.421482598467910e-02
-3.856543418129082e-02 6.126372802480401e-03 -1.621002458586568e-01
2.303533472446153e-02 4.425160860440554e-02 -9.431672898376149e-02
-3.819340520045393e-02 6.984201215481900e-03 -1.619560730740504e-01
2.279566698527933e-02 4.480447681087150e-02 -9.440988686643867e-02
-3.785775943316699e-02 7.758154091105087e-03 -1.618259789991373e-01
2.257943408339831e-02 4.530328764339894e-02 -9.449393845094917e-02
-3.755979293754358e-02 8.445237390491685e-03 -1.617104726553064e-01
2.238747221981817e-02 4.574611138927124e-02 -9.456855783996891e-02
-3.730065620626521e-02 9.042793188715439e-03 -1.616100060819806e-01
2.222052371170341e-02 4.613123496536935e-02 -9.463345569445736e-02
-3.708134971695416e-02 9.548510013939603e-03 -1.615249725175390e-01
2.207923410882569e-02 4.645716858268139e-02 -9.468838036909233e-02
-3.690272000741909e-02 9.960431966408390e-03 -1.614557047956353e-01
2.196414965035953e-02 4.672265162430787e-02 -9.473311891382946e-02
-3.676545612785586e-02 1.027696695790312e-02 -1.614024739000638e-01
2.187571496679820e-02 4.692665795649024e-02 -9.476749797842178e-02
-3.667008542165458e-02 1.049689648885102e-02 -1.613654872719736e-01
2.181427035161313e-02 4.706840223052763e-02 -9.479138488229874e-02
-3.661695481591367e-02 1.061941883009595e-02 -1.613448815102062e-01
2.178003969951442e-02 4.714736771382317e-02 -9.480469231085052e-02
-3.659203836606321e-02 1.067687777753962e-02 -1.613352179506277e-01
2.176398665745156e-02 4.718439992929026e-02 -9.481093307625602e-02
-3.653890793919931e-02 1.079940010951939e-02 -1.613146117769037e-01
2.172975604110178e-02 4.726336541224233e-02 -9.482424058547863e-02
-3.644353816545109e-02 1.101932959225972e-02 -1.612776230011418e-01
2.166831161216440e-02 4.740510968453344e-02 -9.484812790969069e-02
-3.630627700796532e-02 1.133586444343192e-02 -1.612243858349663e-01
2.157987747183387e-02 4.760911601181738e-02 -9.488250820050388e-02
-3.612765328355694e-02 1.174778608858385e-02 -1.611551043227452e-01
2.146479420637214e-02 4.787459904326808e-02 -9.492724943884906e-02
-3.590835792829959e-02 1.225350234495107e-02 -1.610700450975245e-01
2.132350681951457e-02 4.820053264304081e-02 -9.498217911846236e-02
-3.564923974617770e-02 1.285105720114211e-02 -1.609695357601065e-01
2.115656199664128e-02 4.858565619269696e-02 -9.504708529936857e-02
-3.535130182224300e-02 1.353813905963780e-02 -1.608539635213794e-01
2.096460579769930e-02 4.902847990280940e-02 -9.512171749267058e-02
-3.501569755235820e-02 1.431208985921107e-02 -1.607237737008527e-01
2.074838110365490e-02 4.952729069158184e-02 -9.520578763936040e-02
-3.464372614212397e-02 1.516991541780614e-02 -1.605794680235175e-01
2.050872472142052e-02 5.008015884997899e-02 -9.529897122035584e-02
-3.423682755649324e-02 1.610829703921264e-02 -1.604216027070710e-01
2.024656413524487e-02 5.068494552131610e-02 -9.540090850270802e-02
-3.379657692969942e-02 1.712360436206781e-02 -1.602507863423931e-01
1.996291391066765e-02 5.133931098149265e-02 -9.551120591990735e-02
-3.332467845400151e-02 1.821190940928857e-02 -1.600676775735622e-01
1.965887176285413e-02 5.204072369288611e-02 -9.562943758200797e-02
-3.282295876987825e-02 1.936900178653425e-02 -1.598729825852742e-01
1.933561430378241e-02 5.278647009880230e-02 -9.575514691027107e-02
-3.229335988297685e-02 2.059040497214275e-02 -1.596674524065566e-01
1.899439248447976e-02 5.357366512140466e-02 -9.588784839035844e-02
-3.173793163524220e-02 2.187139363608519e-02 -1.594518800405035e-01
1.863652674987181e-02 5.439926332289050e-02 -9.602702943757752e-02
-3.115882375949424e-02 2.320701192121407e-02 -1.592270974304949e-01
1.826340192499967e-02 5.526007068692780e-02 -9.617215236720716e-02
-3.055827754837521e-02 2.459209261622825e-02 -1.589939722740510e-01
1.787646185243152e-02 5.615275697488185e-02 -9.632265646250444e-02
-2.993861717009312e-02 2.602127714625986e-02 -1.587534046961102e-01
1.747720380167358e-02 5.707386860909044e-02 -9.647796013259427e-02
-2.930224066474577e-02 2.748903630379411e-02 -1.585063237941192e-01
1.706717267226792e-02 5.801984203338802e-02 -9.663746315207702e-02
-2.865161065622955e-02 2.898969163974974e-02 -1.582536840678770e-01
1.664795501306369e-02 5.898701749921500e-02 -9.680054897385297e-02
-2.798924481581453e-02 3.051743743198262e-02 -1.579964617475861e-01
1.622117288085203e-02 5.997165322399466e-02 -9.696658710635528e-02
-2.731770611440140e-02 3.206636314623538e-02 -1.577356510340252e-01
1.578847756217108e-02 6.096993986701263e-02 -9.713493554611212e-02
-2.663959290126481e-02 3.363047630264455e-02 -1.574722602651703e-01
1.535154318260708e-02 6.197801526680081e-02 -9.730494325631801e-02
-2.595752884772703e-02 3.520372565934784e-02 -1.572073080239468e-01
1.491206022834436e-02 6.299197938301175e-02 -9.747595268189184e-02
-2.527415279470008e-02 3.678002462349957e-02 -1.569418192020987e-01
1.447172900504686e-02 6.400790938497314e-02 -9.764730229133028e-02
-2.459210854337214e-02 3.835327479912735e-02 -1.566768210353993e-01
1.403225305938528e-02 6.502187482854481e-02 -9.781832913553681e-02
-2.391403462850787e-02 3.991738958072504e-02 -1.564133391256118e-01
1.359533258865992e-02 6.602995286255295e-02 -9.798837141371428e-02
-2.324255411386841e-02 4.146631770130424e-02 -1.561523934647239e-01
1.316265786400378e-02 6.702824340596249e-02 -9.815677103635694e-02
-2.258026444914605e-02 4.299406664379919e-02 -1.558949944770314e-01
1.273590269258961e-02 6.801288423705915e-02 -9.832287617536625e-02
-2.192972742754594e-02 4.449472582524856e-02 -1.556421390946360e-01
1.231671794410449e-02 6.898006593625099e-02 -9.848604379134160e-02
-2.129345928273683e-02 4.596248946405593e-02 -1.553948068818391e-01
1.190672516649732e-02 6.992604662466795e-02 -9.864564212816723e-02
-2.067392096333366e-02 4.739167904185848e-02 -1.551539562237684e-01
1.150751031565268e-02 7.084716644152544e-02 -9.880105316512368e-02
-2.007350862237306e-02 4.877676527310161e-02 -1.549205205943611e-01
1.112061762319552e-02 7.173986170423122e-02 -9.895167501690288e-02
-1.949454435839650e-02 5.011238949732597e-02 -1.546954049185464e-01
1.074754362609042e-02 7.260067869644486e-02 -9.909692427209456e-02
-1.893926724377208e-02 5.139338441141028e-02 -1.544794820431257e-01
1.038973138106730e-02 7.342628703074022e-02 -9.923623826093887e-02
-1.840982467476361e-02 5.261479406157874e-02 -1.542735893304421e-01
1.004856488618271e-02 7.421349253417875e-02 -9.936907724341038e-02
-1.790826407660245e-02 5.377189301785825e-02 -1.540785253884555e-01
9.725363731018883e-03 7.495924960695263e-02 -9.949492650899924e-02
-1.743652499542718e-02 5.486020465687345e-02 -1.538950469503096e-01
9.421377996124988e-03 7.566067300632581e-02 -9.961329837990326e-02
-1.699643160743804e-02 5.587551848237298e-02 -1.537238659158784e-01
9.137783421324895e-03 7.631504901035767e-02 -9.972373410971988e-02
-1.658968567394440e-02 5.681390641674116e-02 -1.535656465671225e-01
8.875676861437046e-03 7.691984591838834e-02 -9.982580567015360e-02
-1.621785996914223e-02 5.767173800101551e-02 -1.534210029683431e-01
8.636072046762401e-03 7.747272384801067e-02 -9.991911741871846e-02
-1.588239220534733e-02 5.844569444582719e-02 -1.532904965615755e-01
8.419895664331050e-03 7.797154379141487e-02 -1.000033076409597e-01
-1.558457947775174e-02 5.913278148184425e-02 -1.531746339662903e-01
8.227983774181180e-03 7.841437589796230e-02 -1.000780499613960e-01
-1.532557324667068e-02 5.973034096779441e-02 -1.530738649909381e-01
8.061078572296043e-03 7.879950695596857e-02 -1.001430546184331e-01
-1.510637486640557e-02 6.023606123458319e-02 -1.529885808603795e-01
7.919825506122817e-03 7.912544705984816e-02 -1.001980696007333e-01
-1.492783164178274e-02 6.064798620882093e-02 -1.529191126522789e-01
7.804770730505276e-03 7.939093549053641e-02 -1.002428816495979e-01
-1.479063326462519e-02 6.096452365628698e-02 -1.528657298853604e-01
7.716358808855041e-03 7.959494602866478e-02 -1.002773171642659e-01
-1.469530758237812e-02 6.118445496244074e-02 -1.528286388521635e-01
7.654929984389089e-03 7.973669325833077e-02 -1.003012432729676e-01
-1.464220188649541e-02 6.130697831717544e-02 -1.528079753221093e-01
7.620708120601371e-03 7.981566040009287e-02 -1.003145725364635e-01
-1.461729707913027e-02 6.136443774547312e-02 -1.527982847612769e-01
7.604659197949341e-03 7.985269339598258e-02 -1.003208235402163e-01
-1.456419146452258e-02 6.148696110357803e-02 -1.527776210427646e-01
7.570437364032968e-03 7.993166054243245e-02 -1.003341528768218e-01
-1.446886620575155e-02 6.170689242729160e-02 -1.527405290276252e-01
7.509008695208803e-03 8.007340779652361e-02 -1.003580793664545e-01
-1.433166906394426e-02 6.202342992598252e-02 -1.526871433962164e-01
7.420597227591795e-03 8.027741840590395e-02 -1.003925159923616e-01
-1.415312855288375e-02 6.243535501274061e-02 -1.526176688959950e-01
7.305543449300478e-03 8.054290699310435e-02 -1.004373304821669e-01
-1.393393521443998e-02 6.294107548859297e-02 -1.525323730746236e-01
7.164292236167587e-03 8.086884738778490e-02 -1.004923499997552e-01
-1.367493737060186e-02 6.353863532232766e-02 -1.524315846512029e-01
6.997390116878241e-03 8.125397892954958e-02 -1.005573622013998e-01
-1.337713753998677e-02 6.422572289312953e-02 -1.523156921508153e-01
6.805482966804242e-03 8.169681177997017e-02 -1.006321161231050e-01
-1.304168847137237e-02 6.499968011315364e-02 -1.521851423942658e-01
6.589313455480609e-03 8.219563280168209e-02 -1.007163231622922e-01
[...]
  <PointData>
        <DataArray type="Float64" Name="force" NumberOfComponents="3" format="ascii">
1.731578988566611e-05 1.069434485464980e-05 1.892114133631506e-05
-1.731578988566611e-05 -1.069434485464980e-05 -1.892114133631506e-05
1.778478159054138e-05 1.100700302693765e-05 1.956976902530254e-05
-1.778478159054138e-05 -1.100700302693765e-05 -1.956976902530254e-05
1.822860548930094e-05 1.130369218757722e-05 2.018837934365991e-05
-1.822860548930094e-05 -1.130369218757722e-05 -2.018837934365991e-05
1.864192472396268e-05 1.158068879513916e-05 2.076861074103007e-05
-1.864192472396268e-05 -1.158068879513916e-05 -2.076861074103007e-05
1.901948955658830e-05 1.183430674558897e-05 2.130209998086765e-05
-1.901948955658830e-05 -1.183430674558897e-05 -2.130209998086765e-05
1.935626807748663e-05 1.206099294901136e-05 2.178071285942301e-05
-1.935626807748663e-05 -1.206099294901136e-05 -2.178071285942301e-05
1.964758124568481e-05 1.225742722414904e-05 2.219678937823428e-05
-1.964758124568481e-05 -1.225742722414904e-05 -2.219678937823428e-05
1.988923657260430e-05 1.242062213856052e-05 2.254339207197496e-05
-1.988923657260430e-05 -1.242062213856052e-05 -2.254339207197496e-05
2.007765446495647e-05 1.254801809099695e-05 2.281454498900091e-05
-2.007765446495647e-05 -1.254801809099695e-05 -2.281454498900091e-05
2.020998243783833e-05 1.263756966566725e-05 2.300545209836922e-05
-2.020998243783833e-05 -1.263756966566725e-05 -2.300545209836922e-05
2.028421070544778e-05 1.268783167541939e-05 2.311271032518295e-05
-2.028421070544778e-05 -1.268783167541939e-05 -2.311271032518295e-05
2.031914754830318e-05 1.271149552411566e-05 2.316323561970333e-05
-2.031914754830318e-05 -1.271149552411566e-05 -2.316323561970333e-05
2.039391538304565e-05 1.276215355591398e-05 2.327145507461814e-05
-2.039391538304565e-05 -1.276215355591398e-05 -2.327145507461814e-05
2.052905420104146e-05 1.285376830276976e-05 2.346737013343379e-05
-2.052905420104146e-05 -1.285376830276976e-05 -2.346737013343379e-05
2.072567220025566e-05 1.298718338091731e-05 2.375313388810695e-05
-2.072567220025566e-05 -1.298718338091731e-05 -2.375313388810695e-05
2.098534405754645e-05 1.316360372189605e-05 2.413184248535266e-05
-2.098534405754645e-05 -1.316360372189605e-05 -2.413184248535266e-05
2.131014876962745e-05 1.338462571732956e-05 2.460761656859557e-05
-2.131014876962745e-05 -1.338462571732956e-05 -2.460761656859557e-05
2.170269063410067e-05 1.365225753132286e-05 2.518566773273697e-05
-2.170269063410067e-05 -1.365225753132286e-05 -2.518566773273697e-05
2.216612260598599e-05 1.396894276961956e-05 2.587237875901389e-05
-2.216612260598599e-05 -1.396894276961956e-05 -2.587237875901389e-05
2.270417328477888e-05 1.433758855599050e-05 2.667540063111769e-05
-2.270417328477888e-05 -1.433758855599050e-05 -2.667540063111769e-05
2.332117741328060e-05 1.476159817571482e-05 2.760376758312984e-05
-2.332117741328060e-05 -1.476159817571482e-05 -2.760376758312984e-05
2.402210943478341e-05 1.524490825810066e-05 2.866803117529751e-05
-2.402210943478341e-05 -1.524490825810066e-05 -2.866803117529751e-05
2.481261940847208e-05 1.579203033845555e-05 2.988041424743650e-05
-2.481261940847208e-05 -1.579203033845555e-05 -2.988041424743650e-05
2.569907029724484e-05 1.640809647556513e-05 3.125498535908814e-05
-2.569907029724484e-05 -1.640809647556513e-05 -3.125498535908814e-05
2.668857528306105e-05 1.709890837537038e-05 3.280785391193980e-05
-2.668857528306105e-05 -1.709890837537038e-05 -3.280785391193980e-05
2.778903331226251e-05 1.787098916458718e-05 3.455738549337212e-05
-2.778903331226251e-05 -1.787098916458718e-05 -3.455738549337212e-05
2.900916050962211e-05 1.873163654805136e-05 3.652443599816251e-05
-2.900916050962211e-05 -1.873163654805136e-05 -3.652443599816251e-05
3.035851440896756e-05 1.968897554664232e-05 3.873260167806764e-05
-3.035851440896756e-05 -1.968897554664232e-05 -3.873260167806764e-05
3.184750711644821e-05 2.075200832237624e-05 4.120848031518445e-05
-3.184750711644821e-05 -2.075200832237624e-05 -4.120848031518445e-05
3.348740254125968e-05 2.193065772589874e-05 4.398193607235259e-05
-3.348740254125968e-05 -2.193065772589874e-05 -4.398193607235259e-05
3.529029169833646e-05 2.323580012213617e-05 4.708635708142576e-05
-3.529029169833646e-05 -2.323580012213617e-05 -4.708635708142576e-05
3.726903882295382e-05 2.467928173951316e-05 5.055889031538110e-05
-3.726903882295382e-05 -2.467928173951316e-05 -5.055889031538110e-05
3.943718967460852e-05 2.627391123389196e-05 5.444063258288601e-05
-3.943718967460852e-05 -2.627391123389196e-05 -5.444063258288601e-05
4.180883201347846e-05 2.803341936482480e-05 5.877674944088003e-05
-4.180883201347846e-05 -2.803341936482480e-05 -5.877674944088003e-05
4.439839691422199e-05 2.997237468199791e-05 6.361648536387836e-05
-4.439839691422199e-05 -2.997237468199791e-05 -6.361648536387836e-05
4.722038849744288e-05 3.210604198988452e-05 6.901301868155142e-05
-4.722038849744288e-05 -3.210604198988452e-05 -6.901301868155142e-05
5.028902902923807e-05 3.445016823516568e-05 7.502310384193675e-05
-5.028902902923807e-05 -3.445016823516568e-05 -7.502310384193675e-05
5.361780645347842e-05 3.702067856197691e-05 8.170643202185333e-05
-5.361780645347842e-05 -3.702067856197691e-05 -8.170643202185333e-05
5.721891263892191e-05 3.983326392414749e-05 8.912462996042049e-05
-5.721891263892191e-05 -3.983326392414749e-05 -8.912462996042049e-05
6.110256336154665e-05 4.290284127168458e-05 9.733980767219744e-05
-6.110256336154665e-05 -4.290284127168458e-05 -9.733980767219744e-05
6.527619574872080e-05 4.624286851140717e-05 1.064125606347410e-04
-6.527619574872080e-05 -4.624286851140717e-05 -1.064125606347410e-04
6.974354601012722e-05 4.986449987206481e-05 1.163993341574188e-04
-6.974354601012722e-05 -4.986449987206481e-05 -1.163993341574188e-04
7.450362009050019e-05 5.377557376172711e-05 1.273490707167533e-04
-7.450362009050019e-05 -5.377557376172711e-05 -1.273490707167533e-04
7.954958250546572e-05 5.797943547629767e-05 1.392990894772132e-04
-7.954958250546572e-05 -5.797943547629767e-05 -1.392990894772132e-04
8.486760381812851e-05 6.247361186364637e-05 1.522701955475899e-04
-8.486760381812851e-05 -6.247361186364637e-05 -1.522701955475899e-04
9.043572424238317e-05 6.724837460782361e-05 1.662610886548504e-04
-9.043572424238317e-05 -6.724837460782361e-05 -1.662610886548504e-04
9.622280837047791e-05 7.228525293717997e-05 1.812422389158517e-04
-9.622280837047791e-05 -7.228525293717997e-05 -1.812422389158517e-04
1.021876820056956e-04 7.755558418076100e-05 1.971495199073801e-04
-1.021876820056956e-04 -7.755558418076100e-05 -1.971495199073801e-04
1.082785539276611e-04 8.301921946445938e-05 2.138780297357129e-04
-1.082785539276611e-04 -8.301921946445938e-05 -2.138780297357129e-04
1.144328301529243e-04 8.862352840588362e-05 2.312766759224524e-04
-1.144328301529243e-04 -8.862352840588362e-05 -2.312766759224524e-04
1.205774229533399e-04 9.430286610586555e-05 2.491442285656846e-04
-1.205774229533399e-04 -9.430286610586555e-05 -2.491442285656846e-04
1.266296392702309e-04 9.997867228482390e-05 2.672276301770327e-04
-1.266296392702309e-04 -9.997867228482390e-05 -2.672276301770327e-04
1.324987022183724e-04 1.055603601402162e-04 2.852233572657740e-04
-1.324987022183724e-04 -1.055603601402162e-04 -2.852233572657740e-04
1.380879159979722e-04 1.109471164791887e-04 3.027825266979363e-04
-1.380879159979722e-04 -1.109471164791887e-04 -3.027825266979363e-04
1.432974318194753e-04 1.160306724654933e-04 3.195202067121234e-04
-1.432974318194753e-04 -1.160306724654933e-04 -3.195202067121234e-04
1.480275155933873e-04 1.206990174648664e-04 3.350290240941070e-04
-1.480275155933873e-04 -1.206990174648664e-04 -3.350290240941070e-04
1.521821638548101e-04 1.248409236666263e-04 3.488966777911045e-04
-1.521821638548101e-04 -1.248409236666263e-04 -3.488966777911045e-04
1.556728700122451e-04 1.283510386346486e-04 3.607264288005021e-04
-1.556728700122451e-04 -1.283510386346486e-04 -3.607264288005021e-04
1.584223163755126e-04 1.311352046158973e-04 3.701591224498842e-04
-1.584223163755126e-04 -1.311352046158973e-04 -3.701591224498842e-04
1.603677766048977e-04 1.331156095761645e-04 3.768949568528388e-04
-1.603677766048977e-04 -1.331156095761645e-04 -3.768949568528388e-04
1.614642902642990e-04 1.342356177769842e-04 3.807139386710366e-04
-1.614642902642990e-04 -1.342356177769842e-04 -3.807139386710366e-04
1.619816808387191e-04 1.347650466513648e-04 3.825215644650876e-04
-1.619816808387191e-04 -1.347650466513648e-04 -3.825215644650876e-04
1.630917289460828e-04 1.359029854802421e-04 3.864119888257059e-04
-1.630917289460828e-04 -1.359029854802421e-04 -3.864119888257059e-04
1.651077131945779e-04 1.379768304048830e-04 3.935201410302152e-04
-1.651077131945779e-04 -1.379768304048830e-04 -3.935201410302152e-04
1.680629287674725e-04 1.410337117760530e-04 4.040396497484012e-04
-1.680629287674725e-04 -1.410337117760530e-04 -4.040396497484012e-04
1.720058294062539e-04 1.451435803908571e-04 4.182603662724405e-04
-1.720058294062539e-04 -1.451435803908571e-04 -4.182603662724405e-04
1.770013989574128e-04 1.504024248493851e-04 4.365838927069358e-04
-1.770013989574128e-04 -1.504024248493851e-04 -4.365838927069358e-04
1.831325103304385e-04 1.569363227056495e-04 4.595440776124059e-04
-1.831325103304385e-04 -1.569363227056495e-04 -4.595440776124059e-04
1.905015298815346e-04 1.649068660670025e-04 4.878350179366382e-04
-1.905015298815346e-04 -1.649068660670025e-04 -4.878350179366382e-04
1.992321284045489e-04 1.745183256336220e-04 5.223488211763916e-04
-1.992321284045489e-04 -1.745183256336220e-04 -5.223488211763916e-04
2.094711856945360e-04 1.860270206440866e-04 5.642261843853931e-04
-2.094711856945360e-04 -1.860270206440866e-04 -5.642261843853931e-04
2.213905793710908e-04 1.997535209920115e-04 6.149240333275584e-04
-2.213905793710908e-04 -1.997535209920115e-04 -6.149240333275584e-04
2.351884936976670e-04 2.160985223394061e-04 6.763061321845606e-04
-2.351884936976670e-04 -2.160985223394061e-04 -6.763061321845606e-04
2.510896327824246e-04 2.355635235503023e-04 7.507649260383067e-04
-2.510896327824246e-04 -2.355635235503023e-04 -7.507649260383067e-04
2.693433171737226e-04 2.587778249167967e-04 8.413862206610967e-04
-2.693433171737226e-04 -2.587778249167967e-04 -8.413862206610967e-04
2.902177920738092e-04 2.865338919428889e-04 9.521730872095629e-04
-2.902177920738092e-04 -2.865338919428889e-04 -9.521730872095629e-04
3.139880334362587e-04 3.198338419756243e-04 1.088352267328799e-03
-3.139880334362587e-04 -3.198338419756243e-04 -1.088352267328799e-03
3.409126722232740e-04 3.599507747949528e-04 1.256796328881047e-03
-3.409126722232740e-04 -3.599507747949528e-04 -1.256796328881047e-03
3.711929946990538e-04 4.085099677431493e-04 1.466609337680863e-03
-3.711929946990538e-04 -4.085099677431493e-04 -1.466609337680863e-03
4.049027223655222e-04 4.675966965211411e-04 1.729945016425937e-03
-4.049027223655222e-04 -4.675966965211411e-04 -1.729945016425937e-03
4.418704781526675e-04 5.398997480180660e-04 2.063157427154825e-03
-4.418704781526675e-04 -5.398997480180660e-04 -2.063157427154825e-03
4.814859925907161e-04 6.289026890571777e-04 2.488429771423743e-03
-4.814859925907161e-04 -6.289026890571777e-04 -2.488429771423743e-03
5.223838022669746e-04 7.391387374553164e-04 3.036093634087221e-03
-5.223838022669746e-04 -7.391387374553164e-04 -3.036093634087221e-03
5.619307003565030e-04 8.765296181449077e-04 3.747948309739874e-03
-5.619307003565030e-04 -8.765296181449077e-04 -3.747948309739874e-03
5.953997634480355e-04 1.048833735559350e-03 4.682030464979438e-03
-5.953997634480355e-04 -1.048833735559350e-03 -4.682030464979438e-03
6.146458079595619e-04 1.266233332340877e-03 5.919484279250251e-03
-6.146458079595619e-04 -1.266233332340877e-03 -5.919484279250251e-03
6.059923819028753e-04 1.542091634876635e-03 7.574458547752249e-03
-6.059923819028753e-04 -1.542091634876635e-03 -7.574458547752249e-03
5.468828589916962e-04 1.893904274883843e-03 9.808321275014105e-03
-5.468828589916962e-04 -1.893904274883843e-03 -9.808321275014105e-03
4.006204201528812e-04 2.344444700078700e-03 1.284992062350073e-02
-4.006204201528812e-04 -2.344444700078700e-03 -1.284992062350073e-02
1.082138179095415e-04 2.923042765753488e-03 1.702405197545278e-02
-1.082138179095415e-04 -2.923042765753488e-03 -1.702405197545278e-02
-4.240194749346217e-04 3.666807785201179e-03 2.279046999351453e-02
4.240194749346217e-04 -3.666807785201179e-03 -2.279046999351453e-02
-1.342748669599162e-03 4.621360614753479e-03 3.079511256692061e-02
1.342748669599162e-03 -4.621360614753479e-03 -3.079511256692061e-02
-2.873390632033981e-03 5.840196076001406e-03 4.193235191350668e-02
2.873390632033981e-03 -5.840196076001406e-03 -4.193235191350668e-02
-5.353589278909845e-03 7.381052094227563e-03 5.740931079814640e-02
5.353589278909845e-03 -7.381052094227563e-03 -5.740931079814640e-02
-9.270310211114489e-03 9.296505325365132e-03 7.878527147665744e-02
9.270310211114489e-03 -9.296505325365132e-03 -7.878527147665744e-02
-1.528546168772385e-02 1.161443993244383e-02 1.079217376490770e-01
1.528546168772385e-02 -1.161443993244383e-02 -1.079217376490770e-01
-2.421138572963404e-02 1.430256263472753e-02 1.467095853162545e-01
2.421138572963404e-02 -1.430256263472753e-02 -1.467095853162545e-01
-3.685562209958350e-02 1.721203854482865e-02 1.963375795517490e-01
3.685562209958350e-02 -1.721203854482865e-02 -1.963375795517490e-01
-5.360358429464794e-02 2.000499156095056e-02 2.557936596302766e-01
5.360358429464794e-02 -2.000499156095056e-02 -2.557936596302766e-01
-7.361494036389118e-02 2.209968861766116e-02 3.194808259433304e-01
7.361494036389118e-02 -2.209968861766116e-02 -3.194808259433304e-01
-9.374002867871002e-02 2.271569164385098e-02 3.747071838215764e-01
9.374002867871002e-02 -2.271569164385098e-02 -3.747071838215764e-01
-1.078524334633737e-01 2.111962662301665e-02 4.014300374679972e-01
1.078524334633737e-01 -2.111962662301665e-02 -4.014300374679972e-01
-1.078644308459518e-01 1.705704962898205e-02 3.774146482977241e-01
1.078644308459518e-01 -1.705704962898205e-02 -3.774146482977241e-01
-8.709927267184488e-02 1.110323920590480e-02 2.889536587680029e-01
8.709927267184488e-02 -1.110323920590480e-02 -2.889536587680029e-01
-4.444361143532586e-02 4.558317367654897e-03 1.408889158307632e-01
4.444361143532586e-02 -4.558317367654897e-03 -1.408889158307632e-01
1.403159547813561e-02 -1.157010775429195e-03 -4.281075567941399e-02
-1.403159547813561e-02 1.157010775429195e-03 4.281075567941399e-02
7.766346039115817e-02 -5.161349703636431e-03 -2.295996267085081e-01
-7.766346039115817e-02 5.161349703636431e-03 2.295996267085081e-01
1.359815176560736e-01 -7.351642103139731e-03 -3.920320740742665e-01
-1.359815176560736e-01 7.351642103139731e-03 3.920320740742665e-01
1.821873655724494e-01 -8.180664468523393e-03 -5.153638570396526e-01
-1.821873655724494e-01 8.180664468523393e-03 5.153638570396526e-01
2.137182389269570e-01 -8.273895919657704e-03 -5.967288173106940e-01
-2.137182389269570e-01 8.273895919657704e-03 5.967288173106940e-01
2.307270453889788e-01 -8.150934034974581e-03 -6.395943166676896e-01
-2.307270453889788e-01 8.150934034974581e-03 6.395943166676896e-01
2.385114717746395e-01 -8.050596651918795e-03 -6.589517885702354e-01
-2.385114717746395e-01 8.050596651918795e-03 6.589517885702354e-01
2.546115431329410e-01 -7.747485901947767e-03 -6.984219259487834e-01
-2.546115431329410e-01 7.747485901947767e-03 6.984219259487834e-01
2.814072527794699e-01 -6.912337686555559e-03 -7.621557235126470e-01
-2.814072527794699e-01 6.912337686555559e-03 7.621557235126470e-01
3.138027974726376e-01 -5.129587188235785e-03 -8.346330204085034e-01
-3.138027974726376e-01 5.129587188235785e-03 8.346330204085034e-01
3.418706643627466e-01 -2.062158146530306e-03 -8.884146295693146e-01
-3.418706643627466e-01 2.062158146530306e-03 8.884146295693146e-01
3.500635208946929e-01 2.128400667359409e-03 -8.846091811392781e-01
-3.500635208946929e-01 -2.128400667359409e-03 8.846091811392781e-01
3.203004387333827e-01 6.298184435381897e-03 -7.836462320125622e-01
-3.203004387333827e-01 -6.298184435381897e-03 7.836462320125622e-01
2.412145393593207e-01 8.294110011416132e-03 -5.691365898866384e-01
-2.412145393593207e-01 -8.294110011416132e-03 5.691365898866384e-01
1.202116701892104e-01 6.001022471567440e-03 -2.725807598076444e-01
-1.202116701892104e-01 -6.001022471567440e-03 2.725807598076444e-01
-1.306969134817128e-02 -8.622395289400835e-04 2.839414928096063e-02
1.306969134817128e-02 8.622395289400835e-04 -2.839414928096063e-02
-1.209308728631089e-01 -9.947932782207935e-03 2.510631572042632e-01
1.209308728631089e-01 9.947932782207935e-03 -2.510631572042632e-01
-1.801569549894853e-01 -1.775651628640771e-02 3.566403019206339e-01
1.801569549894853e-01 1.775651628640771e-02 -3.566403019206339e-01
-1.919910986442372e-01 -2.201645708529266e-02 3.617567978333875e-01
1.919910986442372e-01 2.201645708529266e-02 -3.617567978333875e-01
-1.732823253012376e-01 -2.260325817764884e-02 3.103332944739584e-01
1.732823253012376e-01 2.260325817764884e-02 -3.103332944739584e-01
-1.421200175339627e-01 -2.071259113400288e-02 2.416555011012593e-01
1.421200175339627e-01 2.071259113400288e-02 -2.416555011012593e-01
-1.102729302258385e-01 -1.769628813921924e-02 1.778851637355712e-01
1.102729302258385e-01 1.769628813921924e-02 -1.778851637355712e-01
-8.299362193023083e-02 -1.448967869026856e-02 1.269483704835502e-01
8.299362193023083e-02 1.448967869026856e-02 -1.269483704835502e-01
-6.154467213384442e-02 -1.157224757773095e-02 8.924306520516202e-02
6.154467213384442e-02 1.157224757773095e-02 -8.924306520516202e-02
-4.541536998929113e-02 -9.118515458253958e-03 6.242733401018000e-02
4.541536998929113e-02 9.118515458253958e-03 -6.242733401018000e-02
-3.356121835995281e-02 -7.142852692992732e-03 4.373909267527289e-02
3.356121835995281e-02 7.142852692992732e-03 -4.373909267527289e-02
-2.494000347533009e-02 -5.591148696928463e-03 3.082744135997299e-02
2.494000347533009e-02 5.591148696928463e-03 -3.082744135997299e-02
-1.868824947439779e-02 -4.388989259822547e-03 2.191975743004996e-02
1.868824947439779e-02 4.388989259822547e-03 -2.191975743004996e-02
-1.414599969964461e-02 -3.463734537379311e-03 1.575453194616749e-02
1.414599969964461e-02 3.463734537379311e-03 -1.575453194616749e-02
-1.082897046223799e-02 -2.752908392160699e-03 1.146034457644071e-02
1.082897046223799e-02 2.752908392160699e-03 -1.146034457644071e-02
-8.389268479922597e-03 -2.206057725699882e-03 8.444177910996723e-03
8.389268479922597e-03 2.206057725699882e-03 -8.444177910996723e-03
-6.579555877960349e-03 -1.783841323208279e-03 6.304966065084673e-03
6.579555877960349e-03 1.783841323208279e-03 -6.304966065084673e-03
-5.224631206888079e-03 -1.456191841716213e-03 4.771636368870406e-03
5.224631206888079e-03 1.456191841716213e-03 -4.771636368870406e-03
-4.200310647150018e-03 -1.200383311080037e-03 3.660420559124310e-03
4.200310647150018e-03 1.200383311080037e-03 -3.660420559124310e-03
-3.418261725654956e-03 -9.993303771134740e-04 2.846050487861646e-03
3.418261725654956e-03 9.993303771134740e-04 -2.846050487861646e-03
-2.815310317172815e-03 -8.402078744861078e-04 2.242522775314800e-03
2.815310317172815e-03 8.402078744861078e-04 -2.242522775314800e-03
-2.345970718945252e-03 -7.133781184672244e-04 1.790302781441141e-03
2.345970718945252e-03 7.133781184672244e-04 -1.790302781441141e-03
-1.977245361757256e-03 -6.115778589195541e-04 1.447808697997174e-03
1.977245361757256e-03 6.115778589195541e-04 -1.447808697997174e-03
-1.685003457217634e-03 -5.293108285411148e-04 1.185725532752193e-03
1.685003457217634e-03 5.293108285411148e-04 -1.185725532752193e-03
-1.451452011267204e-03 -4.623974247982125e-04 9.831887494590179e-04
1.451452011267204e-03 4.623974247982125e-04 -9.831887494590179e-04
-1.263361635124166e-03 -4.076420533800694e-04 8.252060130096997e-04
1.263361635124166e-03 4.076420533800694e-04 -8.252060130096997e-04
-1.110814752714542e-03 -3.625875479486022e-04 7.009024314170741e-04
1.110814752714542e-03 3.625875479486022e-04 -7.009024314170741e-04