<?xml version="1.0" ?> 
<!-- 
# vtk DataFile Version 3.0
-->
<VTKFile type="UnstructuredGrid" version="0.1" compressor="vtkZLibDataCompressor" byte_order="LittleEndian">
  <UnstructuredGrid>
    <FieldData>
      <DataArray type="Float64" Name="TIME" NumberOfTuples="1" format="ascii">
2.500000000000000e-01 
      </DataArray>
    </FieldData>

    <Piece NumberOfPoints="408" NumberOfCells="0" >
      <Points>
        <DataArray type="Float64" NumberOfComponents="3" format="ascii">
-1.730855962033655e-02 -1.379809280228586e-02 -8.663911582529127e-02
9.924210621377111e-03 3.591625554450283e-03 -3.994652317405116e-02
-1.660786388634394e-02 -1.234487133723244e-02 -8.650667912685261e-02
9.495484880457974e-03 4.480841596880088e-03 -4.002764597456496e-02
-1.592558723627660e-02 -1.092984219526816e-02 -8.637770825286940e-02
9.078026388652148e-03 5.346688688940876e-03 -4.010663721806738e-02
-1.526436883554876e-02 -9.558479847247973e-03 -8.625270389153686e-02
8.673450224323351e-03 6.185816980013401e-03 -4.018319126399710e-02
-1.462676636196657e-02 -8.236089822731649e-03 -8.613215141651248e-02
8.283321627018940e-03 6.994979985793349e-03 -4.025701189753517e-02
-1.401524611759693e-02 -6.967788183834124e-03 -8.601651898096473e-02
7.909149941613913e-03 7.771047149336408e-03 -4.032781347626428e-02
-1.343217349385716e-02 -5.758481732109957e-03 -8.590625568052444e-02
7.552382778690509e-03 8.511015953653243e-03 -4.039532203596296e-02
-1.287980382659759e-02 -4.612849025002787e-03 -8.580178979259592e-02
7.214400413735604e-03 9.212023539005791e-03 -4.045927635124792e-02
-1.236027367644498e-02 -3.535322275226543e-03 -8.570352709906370e-02
6.896510446806784e-03 9.871357779987672e-03 -4.051942894695466e-02
-1.187559256801795e-02 -2.530070202959527e-03 -8.561184929898494e-02
6.599942743287619e-03 1.048646777960857e-02 -4.057554705634081e-02
-1.142763521980856e-02 -1.600981906916793e-03 -8.552711251738226e-02
6.325844675228120e-03 1.105497373993462e-02 -4.062741352240942e-02
-1.101813429450724e-02 -7.516518161369448e-04 -8.544964591575011e-02
6.075276681519072e-03 1.157467617142421e-02 -4.067482763888602e-02
-1.064867369722927e-02 1.463422053177201e-05 -8.537975040934076e-02
5.849208163716589e-03 1.204356440606974e-02 -4.071760592765424e-02
-1.032068244617842e-02 6.949116563593478e-04 -8.531769749565342e-02
5.648513732535053e-03 1.245982438318588e-02 -4.075558284979608e-02
-1.003542913576233e-02 1.286548738597160e-03 -8.526372819762336e-02
5.473969817249897e-03 1.282184568244464e-02 -4.078861144790866e-02
-9.794017002431290e-03 1.787256749027751e-03 -8.521805212311594e-02
5.326251644284425e-03 1.312822779113502e-02 -4.081656391849951e-02
-9.597379572585864e-03 2.195099036113078e-03 -8.518084663645227e-02
5.205930572324055e-03 1.337778563189037e-02 -4.083933211684593e-02
-9.446276730027632e-03 2.508499175913803e-03 -8.515225611084540e-02
5.113471684490468e-03 1.356955455718153e-02 -4.085682801313172e-02
-9.341290049148179e-03 2.726250654954456e-03 -8.513239104307681e-02
5.049230931547469e-03 1.370279627494285e-02 -4.086898423345534e-02
-9.282802181734355e-03 2.847559626395507e-03 -8.512132415169599e-02
5.013442517899462e-03 1.377702501154163e-02 -4.087575644709471e-02
-4.519375041894597e-02 -7.162178874902454e-02 -9.189036350416191e-02
2.698752609570192e-02 -3.179691040655234e-02 -3.672205557156170e-02
-4.444243358761958e-02 -7.006412752806673e-02 -9.174952002973001e-02
2.652780627802098e-02 -3.084354768112987e-02 -3.680878237118190e-02
-4.369548870893230e-02 -6.851551126403642e-02 -9.160945311307643e-02
2.607075983391922e-02 -2.989572417113016e-02 -3.689501467911473e-02
-4.295580524339358e-02 -6.698193127115602e-02 -9.147070623299508e-02
2.561815487612274e-02 -2.895710675896934e-02 -3.698041852278338e-02
-4.222624446489209e-02 -6.546932069388320e-02 -9.133381817884553e-02
2.517174229322694e-02 -2.803132667535885e-02 -3.706466304295980e-02
-4.150962839933293e-02 -6.398353155216339e-02 -9.119932092447654e-02
2.473324897857901e-02 -2.712196545212344e-02 -3.714742178317113e-02
-4.080872891617739e-02 -6.253031210052433e-02 -9.106773752412271e-02
2.430437115253132e-02 -2.623254106783589e-02 -3.722837396302076e-02
-4.012625701488273e-02 -6.111528458861565e-02 -9.093958003944509e-02
2.388676780383536e-02 -2.536649433983796e-02 -3.730720573026497e-02
-3.946485234748241e-02 -5.974392350924174e-02 -9.081534750675709e-02
2.348205427548189e-02 -2.452717561525823e-02 -3.738361138657117e-02
-3.882707301763430e-02 -5.842153441804429e-02 -9.069552395328789e-02
2.309179601972743e-02 -2.371783181246678e-02 -3.745729458199436e-02
-3.821538569539909e-02 -5.715323340677244e-02 -9.058057647109100e-02
2.271750254638946e-02 -2.294159386304166e-02 -3.752796947334331e-02
-3.763215608579546e-02 -5.594392730953886e-02 -9.047095335690769e-02
2.236062158774171e-02 -2.220146460275985e-02 -3.759536184176530e-02
-3.707963978781433e-02 -5.479829471860242e-02 -9.036708232595066e-02
2.202253350249551e-02 -2.150030715836820e-02 -3.765921016505836e-02
-3.655997357906556e-02 -5.372076788305486e-02 -9.026936880718681e-02
2.170454594042355e-02 -2.084083387495269e-02 -3.771926664041938e-02
-3.607516715956964e-02 -5.271551556030488e-02 -9.017819432727116e-02
2.140788878815408e-02 -2.022559582658431e-02 -3.777529815355621e-02
-3.562709538638707e-02 -5.178642688643657e-02 -9.009391498982552e-02
2.113370941554274e-02 -1.965697295058486e-02 -3.782708719033122e-02
-3.521749102875923e-02 -5.093709632728790e-02 -9.001686005625434e-02
2.088306824078526e-02 -1.913716484316604e-02 -3.787443268736587e-02
-3.484793807111940e-02 -5.017080976724914e-02 -8.994733063374115e-02
2.065693463100836e-02 -1.866818225122793e-02 -3.791715081833139e-02
-3.451986558840816e-02 -4.949053178667516e-02 -8.988559847540940e-02
2.045618315328269e-02 -1.825183929137255e-02 -3.795507571301478e-02
-3.423454221361395e-02 -4.889889416940417e-02 -8.983190489668502e-02
2.028159018823261e-02 -1.788974642143601e-02 -3.798806010679454e-02
-3.399307120771757e-02 -4.839818566163906e-02 -8.978645980997871e-02
2.013383091245311e-02 -1.758330417746336e-02 -3.801597591930678e-02
-3.379638611129570e-02 -4.799034293929041e-02 -8.974944087391502e-02
2.001347663701968e-02 -1.733369764979397e-02 -3.803871476467453e-02
-3.364524681514082e-02 -4.767694244661501e-02 -8.972099272656814e-02
1.992099240254678e-02 -1.714189149183705e-02 -3.805618841209134e-02
-3.354023489574948e-02 -4.745919071297915e-02 -8.970122608548223e-02
1.985673412453384e-02 -1.700862399681930e-02 -3.806832933019428e-02
-3.348173299985785e-02 -4.733788159635477e-02 -8.969021385025883e-02
1.982093597820136e-02 -1.693438093251788e-02 -3.807509307442723e-02
-3.345429754853525e-02 -4.728099160633270e-02 -8.968504940647042e-02
1.980414783110972e-02 -1.689956338159785e-02 -3.807826506291471e-02
-3.339579571913794e-02 -4.715968248847016e-02 -8.967403688438506e-02
1.976834971584070e-02 -1.682532034614642e-02 -3.808502886973138e-02
-3.329078414620876e-02 -4.694193074838257e-02 -8.965426874863215e-02
1.970409159968085e-02 -1.669205300144865e-02 -3.809717011392084e-02
-3.313964586074179e-02 -4.662853023688637e-02 -8.962581624109224e-02
1.961160783736036e-02 -1.650024728200003e-02 -3.811464471258654e-02
-3.294296298439051e-02 -4.622068747319620e-02 -8.958878772745671e-02
1.949125459905368e-02 -1.625064171755472e-02 -3.813738564746144e-02
-3.270149610340363e-02 -4.571997888861806e-02 -8.954332484554248e-02
1.934349725026321e-02 -1.594420126325817e-02 -3.816530534229565e-02
-3.241617959053806e-02 -4.512834114356602e-02 -8.948960166387857e-02
1.916890749082287e-02 -1.558211137050358e-02 -3.819829619445213e-02
-3.208811765934662e-02 -4.444806296650437e-02 -8.942782398539961e-02
1.896816094232490e-02 -1.516577298861728e-02 -3.823623102011963e-02
-3.171857999695889e-02 -4.368177612164149e-02 -8.935822857787773e-02
1.874203447783403e-02 -1.469679703277218e-02 -3.827896354682667e-02
-3.130899681301890e-02 -4.283244516820198e-02 -8.928108229922974e-02
1.849140319448742e-02 -1.417699811184099e-02 -3.832632897233779e-02
-3.086095328437819e-02 -4.190335596837121e-02 -8.919668111244591e-02
1.821723701642635e-02 -1.360838749000574e-02 -3.837814459262652e-02
-3.037618340609655e-02 -4.089810296516037e-02 -8.910534899064716e-02
1.792059693444396e-02 -1.299316529520837e-02 -3.843421049805863e-02
-2.985656326906942e-02 -3.982057527167733e-02 -8.900743671458680e-02
1.760263089471160e-02 -1.233371199992245e-02 -3.849431033579426e-02
-2.930410378913453e-02 -3.867494162269022e-02 -8.890332056578179e-02
1.726456935172134e-02 -1.163257920547982e-02 -3.855821213589165e-02
-2.872094291544484e-02 -3.746563424547446e-02 -8.879340091906290e-02
1.690772050238370e-02 -1.089247976492716e-02 -3.862566919824088e-02
-2.810933734821722e-02 -3.619733171178251e-02 -8.867810073886183e-02
1.653346521964774e-02 -1.011627728235596e-02 -3.869642103716695e-02
-2.747165379798165e-02 -3.487494083700222e-02 -8.855786398405822e-02
1.614325170525245e-02 -9.306975029236024e-03 -3.877019438027681e-02
-2.681035982027064e-02 -3.350357769639404e-02 -8.843315392670614e-02
1.573858988233895e-02 -8.467704320621078e-03 -3.884670421787831e-02
-2.612801426132964e-02 -3.208854783177133e-02 -8.830445139044915e-02
1.532104554966933e-02 -7.601712396218751e-03 -3.892565489906566e-02
-2.542725735192149e-02 -3.063532572516152e-02 -8.817225291491318e-02
1.489223432012259e-02 -6.712349853254760e-03 -3.900674127034515e-02
-2.471080048763140e-02 -2.914953361883758e-02 -8.803706885282968e-02
1.445381536696747e-02 -5.803057679800587e-03 -3.908964985247014e-02
-2.398141573526281e-02 -2.763691976365244e-02 -8.789942140708271e-02
1.400748500214772e-02 -4.877353938781805e-03 -3.917406005096463e-02
-2.324192510594032e-02 -2.610333617982672e-02 -8.775984261528531e-02
1.355497011145672e-02 -3.938820154235832e-03 -3.925964539564430e-02
-2.249518963640660e-02 -2.455471601623420e-02 -8.761887228986491e-02
1.309802147202032e-02 -2.991087452533606e-03 -3.934607480429241e-02
-2.174409832070944e-02 -2.299705059578377e-02 -8.747705592197075e-02
[...]
  <PointData>
        <DataArray type="Float64" Name="force" NumberOfComponents="3" format="ascii">
3.259253229786376e-04 2.081221246192266e-04 5.588228428034237e-04
-3.259253229786376e-04 -2.081221246192266e-04 -5.588228428034237e-04
3.632199552731010e-04 2.341242454898733e-04 6.467410710420348e-04
-3.632199552731010e-04 -2.341242454898733e-04 -6.467410710420348e-04
4.048751430513083e-04 2.635600875794892e-04 7.492517602628641e-04
-4.048751430513083e-04 -2.635600875794892e-04 -7.492517602628641e-04
4.511552376844309e-04 2.967318561648328e-04 8.682702660233789e-04
-4.511552376844309e-04 -2.967318561648328e-04 -8.682702660233789e-04
5.022475399782749e-04 3.339034977917183e-04 1.005699765807693e-03
-5.022475399782749e-04 -3.339034977917183e-04 -1.005699765807693e-03
5.582276208740408e-04 3.752721757676778e-04 1.163301875171933e-03
-5.582276208740408e-04 -3.752721757676778e-04 -1.163301875171933e-03
6.190203448058440e-04 4.209333636854834e-04 1.342520024165521e-03
-6.190203448058440e-04 -4.209333636854834e-04 -1.342520024165521e-03
6.843588373043871e-04 4.708404337446061e-04 1.544253358743759e-03
-6.843588373043871e-04 -4.708404337446061e-04 -1.544253358743759e-03
7.537448750729043e-04 5.247608371176254e-04 1.768585774015618e-03
-7.537448750729043e-04 -5.247608371176254e-04 -1.768585774015618e-03
8.264153851495702e-04 5.822324762601467e-04 2.014484770205801e-03
-8.264153851495702e-04 -5.822324762601467e-04 -2.014484770205801e-03
9.013206494834577e-04 6.425254831704613e-04 2.279497706049580e-03
-9.013206494834577e-04 -6.425254831704613e-04 -2.279497706049580e-03
9.771200959920190e-04 7.046160395173497e-04 2.559487104099000e-03
-9.771200959920190e-04 -7.046160395173497e-04 -2.559487104099000e-03
1.052200909939080e-03 7.671796805612703e-04 2.848458916383897e-03
-1.052200909939080e-03 -7.671796805612703e-04 -2.848458916383897e-03
1.124722940004965e-03 8.286112367597081e-04 3.138543799164011e-03
-1.124722940004965e-03 -8.286112367597081e-04 -3.138543799164011e-03
1.192690556649722e-03 8.870767773396190e-04 3.420186715233936e-03
-1.192690556649722e-03 -8.870767773396190e-04 -3.420186715233936e-03
1.254048596888758e-03 9.405994589498746e-04 3.682580865745313e-03
-1.254048596888758e-03 -9.405994589498746e-04 -3.682580865745313e-03
1.306795912564152e-03 9.871762795816742e-04 3.914347329525107e-03
-1.306795912564152e-03 -9.871762795816742e-04 -3.914347329525107e-03
1.349107076187545e-03 1.024917121776517e-03 4.104415890698419e-03
-1.349107076187545e-03 -1.024917121776517e-03 -4.104415890698419e-03
1.379451327665540e-03 1.052192460593964e-03 4.243015412712135e-03
-1.379451327665540e-03 -1.052192460593964e-03 -4.243015412712135e-03
1.396701833475543e-03 1.067776318652202e-03 4.322663309527414e-03
-1.396701833475543e-03 -1.067776318652202e-03 -4.322663309527414e-03
2.116357504209797e-05 1.167646916492160e-05 1.617532322125368e-05
-2.116357504209797e-05 -1.167646916492160e-05 -1.617532322125368e-05
2.222758414003597e-05 1.228351745803409e-05 1.720716494787884e-05
-2.222758414003597e-05 -1.228351745803409e-05 -1.720716494787884e-05
2.335814595442539e-05 1.292991770230152e-05 1.831866435463589e-05
-2.335814595442539e-05 -1.292991770230152e-05 -1.831866435463589e-05
2.455539487356960e-05 1.361594966637099e-05 1.951217449205078e-05
-2.455539487356960e-05 -1.361594966637099e-05 -1.951217449205078e-05
2.581858725694938e-05 1.434139125832540e-05 2.078918698817464e-05
-2.581858725694938e-05 -1.434139125832540e-05 -2.078918698817464e-05
2.714592627994505e-05 1.510541129396568e-05 2.215008229967335e-05
-2.714592627994505e-05 -1.510541129396568e-05 -2.215008229967335e-05
2.853437955461167e-05 1.590645648950638e-05 2.359385484907638e-05
-2.853437955461167e-05 -1.590645648950638e-05 -2.359385484907638e-05
2.997949595970023e-05 1.674213639777717e-05 2.511781981908185e-05
-2.997949595970023e-05 -1.674213639777717e-05 -2.511781981908185e-05
3.147523016262827e-05 1.760911132358900e-05 2.671731197422601e-05
-3.147523016262827e-05 -1.760911132358900e-05 -2.671731197422601e-05
3.301378539911158e-05 1.850298962624128e-05 2.838539091330434e-05
-3.301378539911158e-05 -1.850298962624128e-05 -2.838539091330434e-05
3.458548700244593e-05 1.941824212931475e-05 3.011257135760888e-05
-3.458548700244593e-05 -1.941824212931475e-05 -3.011257135760888e-05
3.617870069696401e-05 2.034814245406102e-05 3.188660104742454e-05
-3.617870069696401e-05 -2.034814245406102e-05 -3.188660104742454e-05
3.777981049627396e-05 2.128474278240763e-05 3.369231201163622e-05
-3.777981049627396e-05 -2.128474278240763e-05 -3.369231201163622e-05
3.937327086176941e-05 2.221889462753122e-05 3.551157274010662e-05
-3.937327086176941e-05 -2.221889462753122e-05 -3.551157274010662e-05
4.094174628136819e-05 2.314032343549341e-05 3.732336842037230e-05
-4.094174628136819e-05 -2.314032343549341e-05 -3.732336842037230e-05
4.246634838895881e-05 2.403776408755648e-05 3.910403323716009e-05
-4.246634838895881e-05 -2.403776408755648e-05 -3.910403323716009e-05
4.392697605202116e-05 2.489916152193731e-05 4.082765228523136e-05
-4.392697605202116e-05 -2.489916152193731e-05 -4.082765228523136e-05
4.530275758039769e-05 2.571193676501087e-05 4.246664074180434e-05
-4.530275758039769e-05 -2.571193676501087e-05 -4.246664074180434e-05
4.657258665271718e-05 2.646331382587264e-05 4.399249487105186e-05
-4.657258665271718e-05 -2.646331382587264e-05 -4.399249487105186e-05
4.771573526633644e-05 2.714069750575664e-05 4.537669403289136e-05
-4.771573526633644e-05 -2.714069750575664e-05 -4.537669403289136e-05
4.871251877715585e-05 2.773208671371747e-05 4.659171656652923e-05
-4.871251877715585e-05 -2.773208671371747e-05 -4.659171656652923e-05
4.954498090714687e-05 2.822650302354556e-05 4.761211718045249e-05
-4.954498090714687e-05 -2.822650302354556e-05 -4.761211718045249e-05
5.019756183709561e-05 2.861441085760689e-05 4.841560192974590e-05
-5.019756183709561e-05 -2.861441085760689e-05 -4.841560192974590e-05
5.065771433810587e-05 2.888810641025255e-05 4.898403513175032e-05
-5.065771433810587e-05 -2.888810641025255e-05 -4.898403513175032e-05
5.091649630692156e-05 2.904209002416478e-05 4.930438963356322e-05
-5.091649630692156e-05 -2.904209002416478e-05 -4.930438963356322e-05
5.103846137753161e-05 2.911467856498443e-05 4.945554259791193e-05
-5.103846137753161e-05 -2.911467856498443e-05 -4.945554259791193e-05
5.129983165208835e-05 2.927026841380195e-05 4.977982492491065e-05
-5.129983165208835e-05 -2.927026841380195e-05 -4.977982492491065e-05
5.177347111841360e-05 2.955233367234037e-05 5.036872548980154e-05
-5.177347111841360e-05 -2.955233367234037e-05 -5.036872548980154e-05
5.246540385727739e-05 2.996466280677386e-05 5.123193421952417e-05
-5.246540385727739e-05 -2.996466280677386e-05 -5.123193421952417e-05
5.338434819064356e-05 3.051275141352864e-05 5.238361448930358e-05
-5.338434819064356e-05 -3.051275141352864e-05 -5.238361448930358e-05
5.454197072955155e-05 3.120396874042035e-05 5.384288573145857e-05
-5.454197072955155e-05 -3.120396874042035e-05 -5.384288573145857e-05
5.595312589975190e-05 3.204772153732780e-05 5.563435344198544e-05
-5.595312589975190e-05 -3.204772153732780e-05 -5.563435344198544e-05
5.763615374987950e-05 3.305565965862959e-05 5.778878876937829e-05
-5.763615374987950e-05 -3.305565965862959e-05 -5.778878876937829e-05
5.961324766060578e-05 3.424193178842518e-05 6.034398803131601e-05
-5.961324766060578e-05 -3.424193178842518e-05 -6.034398803131601e-05
6.191090049038358e-05 3.562349826251341e-05 6.334584347795688e-05
-6.191090049038358e-05 -3.562349826251341e-05 -6.334584347795688e-05
6.456043837407249e-05 3.722050889776944e-05 6.684966328564694e-05
-6.456043837407249e-05 -3.722050889776944e-05 -6.684966328564694e-05
6.759865249528041e-05 3.905675504503134e-05 7.092178723155644e-05
-6.759865249528041e-05 -3.905675504503134e-05 -7.092178723155644e-05
7.106854018795283e-05 4.116020648707597e-05 7.564155443069882e-05
-7.106854018795283e-05 -4.116020648707597e-05 -7.564155443069882e-05
7.502016747004216e-05 4.356364520584517e-05 8.110369093338615e-05
-7.502016747004216e-05 -4.356364520584517e-05 -8.110369093338615e-05
7.951166533786911e-05 4.630540932951504e-05 8.742119787931314e-05
-7.951166533786911e-05 -4.630540932951504e-05 -8.742119787931314e-05
8.461037153513181e-05 4.943026157244149e-05 9.472883512945850e-05
-8.461037153513181e-05 -4.943026157244149e-05 -9.472883512945850e-05
9.039412761140224e-05 5.299039694661609e-05 1.031873104239123e-04
-9.039412761140224e-05 -5.299039694661609e-05 -1.031873104239123e-04
9.695273729184360e-05 5.704660407977881e-05 1.129882992836024e-04
-9.695273729184360e-05 -5.704660407977881e-05 -1.129882992836024e-04
1.043895856734081e-04 6.166959258846839e-05 1.243604345610213e-04
-1.043895856734081e-04 -6.166959258846839e-05 -1.243604345610213e-04
1.128234084667871e-04 6.694149487530302e-05 1.375764142304000e-04
-1.128234084667871e-04 -6.694149487530302e-05 -1.375764142304000e-04
1.223901850430843e-04 7.295754342474119e-05 1.529613777351729e-04
-1.223901850430843e-04 -7.295754342474119e-05 -1.529613777351729e-04
1.332451067202236e-04 7.982791279552017e-05 1.709026890020729e-04
-1.332451067202236e-04 -7.982791279552017e-05 -1.709026890020729e-04
1.455645405252174e-04 8.767969728410971e-05 1.918612293546244e-04
-1.455645405252174e-04 -8.767969728410971e-05 -1.918612293546244e-04
1.595478663546669e-04 9.665896845492861e-05 2.163842336680088e-04
-1.595478663546669e-04 -9.665896845492861e-05 -2.163842336680088e-04
1.754190097618425e-04 1.069328187680502e-04 2.451195813386460e-04
-1.754190097618425e-04 -1.069328187680502e-04 -2.451195813386460e-04
1.934274216231116e-04 1.186912454460929e-04 2.788312578578046e-04
-1.934274216231116e-04 -1.186912454460929e-04 -2.788312578578046e-04
2.138481688007210e-04 1.321486595606905e-04 3.184154053248684e-04
-2.138481688007210e-04 -1.321486595606905e-04 -3.184154053248684e-04
2.369806977850658e-04 1.475447166994171e-04 3.649159488426150e-04
-2.369806977850658e-04 -1.475447166994171e-04 -3.649159488426150e-04
2.631457208187104e-04 1.651440566476942e-04 4.195381865477739e-04
-2.631457208187104e-04 -1.651440566476942e-04 -4.195381865477739e-04
2.926795612046368e-04 1.852344124843462e-04 4.836579351632211e-04
-2.926795612046368e-04 -1.852344124843462e-04 -4.836579351632211e-04
1.404878390981128e-03 1.075182699621553e-03 4.360632547970695e-03
-1.404878390981128e-03 -1.075182699621553e-03 -4.360632547970695e-03
1.422500662242874e-03 1.091188443137665e-03 4.442939923811551e-03
-1.422500662242874e-03 -1.091188443137665e-03 -4.442939923811551e-03
1.454782146685530e-03 1.120662762412857e-03 4.595404052785268e-03
-1.454782146685530e-03 -1.120662762412857e-03 -4.595404052785268e-03
1.502746991344721e-03 1.164826466847635e-03 4.825993484760613e-03
-1.502746991344721e-03 -1.164826466847635e-03 -4.825993484760613e-03
1.567926195106465e-03 1.225554208160450e-03 5.147164718647616e-03
-1.567926195106465e-03 -1.225554208160450e-03 -5.147164718647616e-03
1.652430198240658e-03 1.305525271828772e-03 5.577131327432377e-03
-1.652430198240658e-03 -1.305525271828772e-03 -5.577131327432377e-03
1.759036521622201e-03 1.408440819483147e-03 6.141781870806786e-03
-1.759036521622201e-03 -1.408440819483147e-03 -6.141781870806786e-03
1.891292268748424e-03 1.539337469429614e-03 6.877575150409844e-03
-1.891292268748424e-03 -1.539337469429614e-03 -6.877575150409844e-03
2.053618501980548e-03 1.705036078854177e-03 7.835907390256119e-03
-2.053618501980548e-03 -1.705036078854177e-03 -7.835907390256119e-03
2.251384662953566e-03 1.914782706325370e-03 9.089744028504404e-03
-2.251384662953566e-03 -1.914782706325370e-03 -9.089744028504404e-03
2.490882613190799e-03 2.181165036521870e-03 1.074380102812472e-02
-2.490882613190799e-03 -2.181165036521870e-03 -1.074380102812472e-02
2.779051003327573e-03 2.521424382087355e-03 1.295038105179987e-02
-2.779051003327573e-03 -2.521424382087355e-03 -1.295038105179987e-02
3.122640420153264e-03 2.959331953404132e-03 1.593434906808712e-02
-3.122640420153264e-03 -2.959331953404132e-03 -1.593434906808712e-02
3.526184702553124e-03 3.527853463379447e-03 2.003305652261019e-02
-3.526184702553124e-03 -3.527853463379447e-03 -2.003305652261019e-02
3.987484968198369e-03 4.272862931854268e-03 2.576090792933316e-02
-3.987484968198369e-03 -4.272862931854268e-03 -2.576090792933316e-02
4.487981900002260e-03 5.258098826008098e-03 3.391455450540927e-02
-4.487981900002260e-03 -5.258098826008098e-03 -3.391455450540927e-02
4.972734683150877e-03 6.571125144993870e-03 4.574402147500312e-02
-4.972734683150877e-03 -6.571125144993870e-03 -4.574402147500312e-02
5.309594461873233e-03 8.328523191102539e-03 6.322534151710076e-02
-5.309594461873233e-03 -8.328523191102539e-03 -6.322534151710076e-02
5.208130168809721e-03 1.067378589591516e-02 8.946587909522195e-02
-5.208130168809721e-03 -1.067378589591516e-02 -8.946587909522195e-02
4.067399877891532e-03 1.374751760270281e-02 1.291821050945103e-01
-4.067399877891532e-03 -1.374751760270281e-02 -1.291821050945103e-01
7.312542661052558e-04 1.757126772925912e-02 1.887193952433220e-01
-7.312542661052558e-04 -1.757126772925912e-02 -1.887193952433220e-01
-6.702908826180687e-03 2.169557320213540e-02 2.732050848812381e-01
6.702908826180687e-03 -2.169557320213540e-02 -2.732050848812381e-01
-1.998701827243947e-02 2.435404478088860e-02 3.725366524789315e-01
1.998701827243947e-02 -2.435404478088860e-02 -3.725366524789315e-01
-3.489095714809923e-02 2.135865667775081e-02 4.184604899051763e-01
3.489095714809923e-02 -2.135865667775081e-02 -4.184604899051763e-01
-2.552865109626704e-02 8.192843094165446e-03 2.246902816186070e-01
2.552865109626704e-02 -8.192843094165446e-03 -2.246902816186070e-01
5.590260523509373e-02 -8.405642355264753e-03 -3.875206978953586e-01
-5.590260523509373e-02 8.405642355264753e-03 3.875206978953586e-01
1.865723393729767e-01 -7.219702221145510e-03 -1.064992085366576e+00
-1.865723393729767e-01 7.219702221145510e-03 1.064992085366576e+00
2.097651289048359e-01 8.353869075583551e-03 -1.016856153648214e+00
-2.097651289048359e-01 -8.353869075583551e-03 1.016856153648214e+00
7.671886627174894e-02 7.507019373544460e-03 -3.231105244894877e-01
-7.671886627174894e-02 -7.507019373544460e-03 3.231105244894877e-01
-6.323180300205823e-02 -8.999132139046025e-03 2.354903405333982e-01
6.323180300205823e-02 8.999132139046025e-03 -2.354903405333982e-01
-1.204271655264552e-01 -2.135790449505709e-02 4.022612848855025e-01
1.204271655264552e-01 2.135790449505709e-02 -4.022612848855025e-01
-1.186665209430503e-01 -2.439161663609227e-02 3.597079063064646e-01
1.186665209430503e-01 2.439161663609227e-02 -3.597079063064646e-01
-9.721298579512272e-02 -2.222590343492583e-02 2.700821687471216e-01
9.721298579512272e-02 2.222590343492583e-02 -2.700821687471216e-01
-7.488901798860526e-02 -1.855647242547309e-02 1.923379794631832e-01
7.488901798860526e-02 1.855647242547309e-02 -1.923379794631832e-01
-5.690642574655878e-02 -1.501501846842156e-02 1.361313380727857e-01
5.690642574655878e-02 1.501501846842156e-02 -1.361313380727857e-01
-4.352265471259712e-02 -1.207530231857024e-02 9.763011602184553e-02
4.352265471259712e-02 1.207530231857024e-02 -9.763011602184553e-02
-3.379531445158438e-02 -9.767699404478148e-03 7.152172282466875e-02
3.379531445158438e-02 9.767699404478148e-03 -7.152172282466875e-02
-2.674025135650049e-02 -7.993483756479559e-03 5.368785958555929e-02
2.674025135650049e-02 7.993483756479559e-03 -5.368785958555929e-02
-2.158788716514717e-02 -6.636811240017983e-03 4.133167951405978e-02
2.158788716514717e-02 6.636811240017983e-03 -4.133167951405978e-02
-1.778586624941872e-02 -5.597886961141103e-03 3.262825643883759e-02
1.778586624941872e-02 5.597886961141103e-03 -3.262825643883759e-02
-1.494906115815811e-02 -4.798835071780081e-03 2.639607586694908e-02
1.494906115815811e-02 4.798835071780081e-03 -2.639607586694908e-02
-1.281082431807207e-02 -4.181280220115342e-03 2.186595251921691e-02
1.281082431807207e-02 4.181280220115342e-03 -2.186595251921691e-02
-1.118608550678151e-02 -3.702198014918347e-03 1.853151380887446e-02
1.118608550678151e-02 3.702198014918347e-03 -1.853151380887446e-02
-9.945582829121290e-03 -3.330083690615814e-03 1.605502616647268e-02
9.945582829121290e-03 3.330083690615814e-03 -1.605502616647268e-02
-8.998407002874189e-03 -3.041921235212718e-03 1.420837639908025e-02
8.998407002874189e-03 3.041921235212718e-03 -1.420837639908025e-02
-8.280301826008698e-03 -2.820932149009483e-03 1.283592432537680e-02
8.280301826008698e-03 2.820932149009483e-03 -1.283592432537680e-02
-7.745843363863967e-03 -2.654954584491775e-03 1.183094181955251e-02
7.745843363863967e-03 2.654954584491775e-03 -1.183094181955251e-02
-7.363218661379048e-03 -2.535298827547564e-03 1.112056719034434e-02
7.363218661379048e-03 2.535298827547564e-03 -1.112056719034434e-02
-7.110759103931004e-03 -2.455953799835162e-03 1.065618402514190e-02
7.110759103931004e-03 2.455953799835162e-03 -1.065618402514190e-02
-6.974650413098239e-03 -2.413042529120852e-03 1.040728874473681e-02
6.974650413098239e-03 2.413042529120852e-03 -1.040728874473681e-02
-6.911905651117461e-03 -2.393228729522153e-03 1.029290260471781e-02
6.911905651117461e-03 2.393228729522153e-03 -1.029290260471781e-02
-6.780376862488152e-03 -2.351627402856309e-03 1.005385071783312e-02
6.780376862488152e-03 2.351627402856309e-03 -1.005385071783312e-02
-6.551794840860930e-03 -2.279110883309915e-03 9.640796925623540e-03
6.551794840860930e-03 2.279110883309915e-03 -9.640796925623540e-03
-6.238962980425146e-03 -2.179405417389950e-03 9.080555184271975e-03
6.238962980425146e-03 2.179405417389950e-03 -9.080555184271975e-03
-5.858535031357425e-03 -2.057409691231648e-03 8.407434928463001e-03
5.858535031357425e-03 2.057409691231648e-03 -8.407434928463001e-03
-5.429276281552978e-03 -1.918721682113686e-03 7.659238791375191e-03
5.429276281552978e-03 1.918721682113686e-03 -7.659238791375191e-03
-4.970333976919874e-03 -1.769156318942191e-03 6.873409877332518e-03
4.970333976919874e-03 1.769156318942191e-03 -6.873409877332518e-03
-4.499718054554513e-03 -1.614304974479347e-03 6.083831863179795e-03
4.499718054554513e-03 1.614304974479347e-03 -6.083831863179795e-03
-4.033153697463600e-03 -1.459183254361144e-03 5.318626089543692e-03
4.033153697463600e-03 1.459183254361144e-03 -5.318626089543692e-03
-3.583379242436663e-03 -1.307993378901388e-03 4.599045980820209e-03
3.583379242436663e-03 1.307993378901388e-03 -4.599045980820209e-03
-3.159878492519593e-03 -1.164005892517204e-03 3.939359046165603e-03
3.159878492519593e-03 1.164005892517204e-03 -3.939359046165603e-03
-2.768974312503761e-03 -1.029547605384015e-03 3.347473608312508e-03
2.768974312503761e-03 1.029547605384015e-03 -3.347473608312508e-03
-2.414177823363059e-03 -9.060713268149874e-04 2.826019688375496e-03
2.414177823363059e-03 9.060713268149874e-04 -2.826019688375496e-03
-2.096682520120839e-03 -7.942786124570267e-04 2.373614638225933e-03
2.096682520120839e-03 7.942786124570267e-04 -2.373614638225933e-03
-1.815907407897782e-03 -6.942682108401542e-04 1.986106119824644e-03
1.815907407897782e-03 6.942682108401542e-04 -1.986106119824644e-03
-1.570018227332690e-03 -6.056880642872296e-04 1.657660350349555e-03
1.570018227332690e-03 6.056880642872296e-04 -1.657660350349555e-03
-1.356382769157665e-03 -5.278754285423393e-04 1.381632289372406e-03
1.356382769157665e-03 5.278754285423393e-04 -1.381632289372406e-03
-1.171939694325188e-03 -4.599762293987618e-04 1.151206347694914e-03
1.171939694325188e-03 4.599762293987618e-04 -1.151206347694914e-03
-1.013477628263898e-03 -4.010401555027441e-04 9.598289123765207e-04
1.013477628263898e-03 4.010401555027441e-04 -9.598289123765207e-04
-8.778322636224724e-04 -3.500918029942555e-04 8.014700973162581e-04
8.778322636224724e-04 3.500918029942555e-04 -8.014700973162581e-04
-7.620147706485083e-04 -3.061804916369717e-04 6.707562814416465e-04
7.620147706485083e-04 3.061804916369717e-04 -6.707562814416465e-04
-6.632864708755602e-04 -2.684124537217196e-04 5.630118949104988e-04
6.632864708755602e-04 2.684124537217196e-04 -5.630118949104988e-04