<?xml version="1.0" ?> 
<!-- 
# vtk DataFile Version 3.0
-->
<VTKFile type="UnstructuredGrid" version="0.1" compressor="vtkZLibDataCompressor" byte_order="LittleEndian">
  <UnstructuredGrid>
    <FieldData>
      <DataArray type="Float64" Name="TIME" NumberOfTuples="1" format="ascii">
4.999999999999999e-01 
      </DataArray>
    </FieldData>

    <Piece NumberOfPoints="448" NumberOfCells="0" >
      <Points>
        <DataArray type="Float64" NumberOfComponents="3" format="ascii">
-3.897240974572802e-02 5.187987402133556e-03 -1.622579333908199e-01
2.329751045223118e-02 4.364682188731696e-02 -9.421482598467897e-02
-3.856543418129080e-02 6.126372802480295e-03 -1.621002458586566e-01
2.303533472446129e-02 4.425160860440532e-02 -9.431672898376135e-02
-3.819340520045392e-02 6.984201215481794e-03 -1.619560730740501e-01
2.279566698527907e-02 4.480447681087135e-02 -9.440988686643853e-02
-3.785775943316699e-02 7.758154091104981e-03 -1.618259789991370e-01
2.257943408339807e-02 4.530328764339878e-02 -9.449393845094904e-02
-3.755979293754357e-02 8.445237390491578e-03 -1.617104726553061e-01
2.238747221981791e-02 4.574611138927107e-02 -9.456855783996879e-02
-3.730065620626520e-02 9.042793188715334e-03 -1.616100060819804e-01
2.222052371170314e-02 4.613123496536923e-02 -9.463345569445723e-02
-3.708134971695414e-02 9.548510013939495e-03 -1.615249725175388e-01
2.207923410882546e-02 4.645716858268119e-02 -9.468838036909222e-02
-3.690272000741908e-02 9.960431966408282e-03 -1.614557047956351e-01
2.196414965035931e-02 4.672265162430764e-02 -9.473311891382934e-02
-3.676545612785585e-02 1.027696695790301e-02 -1.614024739000636e-01
2.187571496679793e-02 4.692665795649012e-02 -9.476749797842168e-02
-3.667008542165456e-02 1.049689648885091e-02 -1.613654872719733e-01
2.181427035161290e-02 4.706840223052745e-02 -9.479138488229862e-02
-3.661695481591366e-02 1.061941883009585e-02 -1.613448815102060e-01
2.178003969951419e-02 4.714736771382296e-02 -9.480469231085040e-02
-3.659203836606319e-02 1.067687777753952e-02 -1.613352179506275e-01
2.176398665745131e-02 4.718439992929012e-02 -9.481093307625592e-02
-3.653890793919930e-02 1.079940010951928e-02 -1.613146117769035e-01
2.172975604110152e-02 4.726336541224219e-02 -9.482424058547852e-02
-3.644353816545107e-02 1.101932959225961e-02 -1.612776230011416e-01
2.166831161216418e-02 4.740510968453319e-02 -9.484812790969055e-02
-3.630627700796531e-02 1.133586444343181e-02 -1.612243858349660e-01
2.157987747183366e-02 4.760911601181714e-02 -9.488250820050376e-02
-3.612765328355692e-02 1.174778608858375e-02 -1.611551043227449e-01
2.146479420637190e-02 4.787459904326787e-02 -9.492724943884893e-02
-3.590835792829958e-02 1.225350234495097e-02 -1.610700450975242e-01
2.132350681951437e-02 4.820053264304052e-02 -9.498217911846221e-02
-3.564923974617769e-02 1.285105720114200e-02 -1.609695357601063e-01
2.115656199664106e-02 4.858565619269670e-02 -9.504708529936844e-02
-3.535130182224298e-02 1.353813905963770e-02 -1.608539635213791e-01
2.096460579769909e-02 4.902847990280914e-02 -9.512171749267043e-02
-3.501569755235819e-02 1.431208985921096e-02 -1.607237737008524e-01
2.074838110365468e-02 4.952729069158163e-02 -9.520578763936030e-02
-3.464372614212396e-02 1.516991541780603e-02 -1.605794680235172e-01
2.050872472142031e-02 5.008015884997872e-02 -9.529897122035572e-02
-3.423682755649322e-02 1.610829703921253e-02 -1.604216027070707e-01
2.024656413524462e-02 5.068494552131595e-02 -9.540090850270795e-02
-3.379657692969940e-02 1.712360436206770e-02 -1.602507863423929e-01
1.996291391066741e-02 5.133931098149243e-02 -9.551120591990722e-02
-3.332467845400149e-02 1.821190940928846e-02 -1.600676775735620e-01
1.965887176285389e-02 5.204072369288591e-02 -9.562943758200786e-02
-3.282295876987824e-02 1.936900178653414e-02 -1.598729825852739e-01
1.933561430378218e-02 5.278647009880209e-02 -9.575514691027096e-02
-3.229335988297683e-02 2.059040497214264e-02 -1.596674524065563e-01
1.899439248447951e-02 5.357366512140446e-02 -9.588784839035831e-02
-3.173793163524219e-02 2.187139363608509e-02 -1.594518800405032e-01
1.863652674987155e-02 5.439926332289032e-02 -9.602702943757738e-02
-3.115882375949423e-02 2.320701192121396e-02 -1.592270974304947e-01
1.826340192499942e-02 5.526007068692760e-02 -9.617215236720703e-02
-3.055827754837519e-02 2.459209261622813e-02 -1.589939722740507e-01
1.787646185243133e-02 5.615275697488154e-02 -9.632265646250432e-02
-2.993861717009310e-02 2.602127714625974e-02 -1.587534046961099e-01
1.747720380167334e-02 5.707386860909021e-02 -9.647796013259413e-02
-2.930224066474575e-02 2.748903630379399e-02 -1.585063237941189e-01
1.706717267226770e-02 5.801984203338778e-02 -9.663746315207689e-02
-2.865161065622953e-02 2.898969163974962e-02 -1.582536840678768e-01
1.664795501306344e-02 5.898701749921482e-02 -9.680054897385285e-02
-2.798924481581451e-02 3.051743743198251e-02 -1.579964617475859e-01
1.622117288085182e-02 5.997165322399440e-02 -9.696658710635514e-02
-2.731770611440139e-02 3.206636314623526e-02 -1.577356510340250e-01
1.578847756217086e-02 6.096993986701237e-02 -9.713493554611198e-02
-2.663959290126479e-02 3.363047630264443e-02 -1.574722602651700e-01
1.535154318260684e-02 6.197801526680060e-02 -9.730494325631787e-02
-2.595752884772701e-02 3.520372565934771e-02 -1.572073080239465e-01
1.491206022834413e-02 6.299197938301153e-02 -9.747595268189171e-02
-2.527415279470006e-02 3.678002462349945e-02 -1.569418192020985e-01
1.447172900504662e-02 6.400790938497292e-02 -9.764730229133015e-02
-2.459210854337211e-02 3.835327479912724e-02 -1.566768210353990e-01
1.403225305938506e-02 6.502187482854455e-02 -9.781832913553667e-02
-2.391403462850785e-02 3.991738958072492e-02 -1.564133391256116e-01
1.359533258865971e-02 6.602995286255264e-02 -9.798837141371414e-02
-2.324255411386839e-02 4.146631770130412e-02 -1.561523934647236e-01
1.316265786400354e-02 6.702824340596225e-02 -9.815677103635682e-02
-2.258026444914602e-02 4.299406664379906e-02 -1.558949944770311e-01
1.273590269258936e-02 6.801288423705892e-02 -9.832287617536611e-02
-2.192972742754591e-02 4.449472582524844e-02 -1.556421390946358e-01
1.231671794410422e-02 6.898006593625081e-02 -9.848604379134150e-02
-2.129345928273680e-02 4.596248946405582e-02 -1.553948068818388e-01
1.190672516649708e-02 6.992604662466771e-02 -9.864564212816709e-02
-2.067392096333364e-02 4.739167904185836e-02 -1.551539562237681e-01
1.150751031565247e-02 7.084716644152514e-02 -9.880105316512353e-02
-2.007350862237304e-02 4.877676527310150e-02 -1.549205205943609e-01
1.112061762319527e-02 7.173986170423101e-02 -9.895167501690276e-02
-1.949454435839647e-02 5.011238949732585e-02 -1.546954049185461e-01
1.074754362609016e-02 7.260067869644464e-02 -9.909692427209442e-02
-1.893926724377206e-02 5.139338441141016e-02 -1.544794820431254e-01
1.038973138106706e-02 7.342628703073999e-02 -9.923623826093875e-02
-1.840982467476359e-02 5.261479406157863e-02 -1.542735893304418e-01
1.004856488618250e-02 7.421349253417840e-02 -9.936907724341022e-02
-1.790826407660243e-02 5.377189301785813e-02 -1.540785253884553e-01
9.725363731018656e-03 7.495924960695238e-02 -9.949492650899912e-02
-1.743652499542716e-02 5.486020465687333e-02 -1.538950469503093e-01
9.421377996124728e-03 7.566067300632560e-02 -9.961329837990313e-02
-1.699643160743802e-02 5.587551848237286e-02 -1.537238659158781e-01
9.137783421324645e-03 7.631504901035746e-02 -9.972373410971977e-02
-1.658968567394437e-02 5.681390641674104e-02 -1.535656465671222e-01
8.875676861436817e-03 7.691984591838807e-02 -9.982580567015348e-02
-1.621785996914221e-02 5.767173800101540e-02 -1.534210029683429e-01
8.636072046762155e-03 7.747272384801045e-02 -9.991911741871833e-02
-1.588239220534730e-02 5.844569444582707e-02 -1.532904965615751e-01
8.419895664330856e-03 7.797154379141451e-02 -1.000033076409595e-01
-1.558457947775171e-02 5.913278148184412e-02 -1.531746339662901e-01
8.227983774180964e-03 7.841437589796196e-02 -1.000780499613959e-01
-1.532557324667065e-02 5.973034096779428e-02 -1.530738649909378e-01
8.061078572295783e-03 7.879950695596838e-02 -1.001430546184330e-01
-1.510637486640554e-02 6.023606123458305e-02 -1.529885808603793e-01
7.919825506122597e-03 7.912544705984785e-02 -1.001980696007331e-01
-1.492783164178271e-02 6.064798620882080e-02 -1.529191126522786e-01
7.804770730505036e-03 7.939093549053619e-02 -1.002428816495978e-01
-1.479063326462517e-02 6.096452365628685e-02 -1.528657298853601e-01
7.716358808854800e-03 7.959494602866456e-02 -1.002773171642657e-01
-1.469530758237809e-02 6.118445496244061e-02 -1.528286388521632e-01
7.654929984388825e-03 7.973669325833056e-02 -1.003012432729674e-01
-1.464220188649538e-02 6.130697831717531e-02 -1.528079753221091e-01
7.620708120601137e-03 7.981566040009261e-02 -1.003145725364634e-01
-1.461729707913024e-02 6.136443774547300e-02 -1.527982847612766e-01
7.604659197949077e-03 7.985269339598240e-02 -1.003208235402161e-01
-1.456419146452255e-02 6.148696110357791e-02 -1.527776210427644e-01
7.570437364032725e-03 7.993166054243220e-02 -1.003341528768217e-01
-1.446886620575152e-02 6.170689242729147e-02 -1.527405290276250e-01
7.509008695208609e-03 8.007340779652325e-02 -1.003580793664544e-01
-1.433166906394423e-02 6.202342992598240e-02 -1.526871433962161e-01
7.420597227591521e-03 8.027741840590376e-02 -1.003925159923615e-01
-1.415312855288372e-02 6.243535501274048e-02 -1.526176688959947e-01
7.305543449300209e-03 8.054290699310415e-02 -1.004373304821667e-01
-1.393393521443996e-02 6.294107548859285e-02 -1.525323730746234e-01
7.164292236167377e-03 8.086884738778455e-02 -1.004923499997550e-01
-1.367493737060183e-02 6.353863532232754e-02 -1.524315846512026e-01
6.997390116877999e-03 8.125397892954934e-02 -1.005573622013996e-01
-1.337713753998674e-02 6.422572289312940e-02 -1.523156921508150e-01
6.805482966803972e-03 8.169681177996996e-02 -1.006321161231049e-01
-1.304168847137234e-02 6.499968011315352e-02 -1.521851423942655e-01
6.589313455480385e-03 8.219563280168179e-02 -1.007163231622920e-01
[...]
  <PointData>
        <DataArray type="Float64" Name="force" NumberOfComponents="3" format="ascii">
1.731578988566630e-05 1.069434485464992e-05 1.892114133631531e-05
-1.731578988566630e-05 -1.069434485464992e-05 -1.892114133631531e-05
1.778478159054157e-05 1.100700302693778e-05 1.956976902530279e-05
-1.778478159054157e-05 -1.100700302693778e-05 -1.956976902530279e-05
1.822860548930110e-05 1.130369218757735e-05 2.018837934366015e-05
-1.822860548930110e-05 -1.130369218757735e-05 -2.018837934366015e-05
1.864192472396288e-05 1.158068879513931e-05 2.076861074103034e-05
-1.864192472396288e-05 -1.158068879513931e-05 -2.076861074103034e-05
1.901948955658850e-05 1.183430674558913e-05 2.130209998086794e-05
-1.901948955658850e-05 -1.183430674558913e-05 -2.130209998086794e-05
1.935626807748683e-05 1.206099294901154e-05 2.178071285942330e-05
-1.935626807748683e-05 -1.206099294901154e-05 -2.178071285942330e-05
1.964758124568504e-05 1.225742722414920e-05 2.219678937823459e-05
-1.964758124568504e-05 -1.225742722414920e-05 -2.219678937823459e-05
1.988923657260451e-05 1.242062213856066e-05 2.254339207197525e-05
-1.988923657260451e-05 -1.242062213856066e-05 -2.254339207197525e-05
2.007765446495669e-05 1.254801809099714e-05 2.281454498900122e-05
-2.007765446495669e-05 -1.254801809099714e-05 -2.281454498900122e-05
2.020998243783854e-05 1.263756966566741e-05 2.300545209836951e-05
-2.020998243783854e-05 -1.263756966566741e-05 -2.300545209836951e-05
2.028421070544799e-05 1.268783167541954e-05 2.311271032518324e-05
-2.028421070544799e-05 -1.268783167541954e-05 -2.311271032518324e-05
2.031914754830341e-05 1.271149552411584e-05 2.316323561970363e-05
-2.031914754830341e-05 -1.271149552411584e-05 -2.316323561970363e-05
2.039391538304586e-05 1.276215355591417e-05 2.327145507461845e-05
-2.039391538304586e-05 -1.276215355591417e-05 -2.327145507461845e-05
2.052905420104170e-05 1.285376830276991e-05 2.346737013343412e-05
-2.052905420104170e-05 -1.285376830276991e-05 -2.346737013343412e-05
2.072567220025590e-05 1.298718338091747e-05 2.375313388810729e-05
-2.072567220025590e-05 -1.298718338091747e-05 -2.375313388810729e-05
2.098534405754669e-05 1.316360372189623e-05 2.413184248535300e-05
-2.098534405754669e-05 -1.316360372189623e-05 -2.413184248535300e-05
2.131014876962769e-05 1.338462571732970e-05 2.460761656859591e-05
-2.131014876962769e-05 -1.338462571732970e-05 -2.460761656859591e-05
2.170269063410093e-05 1.365225753132303e-05 2.518566773273733e-05
-2.170269063410093e-05 -1.365225753132303e-05 -2.518566773273733e-05
2.216612260598625e-05 1.396894276961972e-05 2.587237875901425e-05
-2.216612260598625e-05 -1.396894276961972e-05 -2.587237875901425e-05
2.270417328477918e-05 1.433758855599071e-05 2.667540063111809e-05
-2.270417328477918e-05 -1.433758855599071e-05 -2.667540063111809e-05
2.332117741328087e-05 1.476159817571498e-05 2.760376758313022e-05
-2.332117741328087e-05 -1.476159817571498e-05 -2.760376758313022e-05
2.402210943478374e-05 1.524490825810092e-05 2.866803117529796e-05
-2.402210943478374e-05 -1.524490825810092e-05 -2.866803117529796e-05
2.481261940847238e-05 1.579203033845576e-05 2.988041424743695e-05
-2.481261940847238e-05 -1.579203033845576e-05 -2.988041424743695e-05
2.569907029724519e-05 1.640809647556538e-05 3.125498535908864e-05
-2.569907029724519e-05 -1.640809647556538e-05 -3.125498535908864e-05
2.668857528306138e-05 1.709890837537061e-05 3.280785391194028e-05
-2.668857528306138e-05 -1.709890837537061e-05 -3.280785391194028e-05
2.778903331226284e-05 1.787098916458743e-05 3.455738549337262e-05
-2.778903331226284e-05 -1.787098916458743e-05 -3.455738549337262e-05
2.900916050962247e-05 1.873163654805166e-05 3.652443599816308e-05
-2.900916050962247e-05 -1.873163654805166e-05 -3.652443599816308e-05
3.035851440896796e-05 1.968897554664263e-05 3.873260167806828e-05
-3.035851440896796e-05 -1.968897554664263e-05 -3.873260167806828e-05
3.184750711644870e-05 2.075200832237652e-05 4.120848031518518e-05
-3.184750711644870e-05 -2.075200832237652e-05 -4.120848031518518e-05
3.348740254126014e-05 2.193065772589908e-05 4.398193607235336e-05
-3.348740254126014e-05 -2.193065772589908e-05 -4.398193607235336e-05
3.529029169833695e-05 2.323580012213651e-05 4.708635708142658e-05
-3.529029169833695e-05 -2.323580012213651e-05 -4.708635708142658e-05
3.726903882295432e-05 2.467928173951359e-05 5.055889031538198e-05
-3.726903882295432e-05 -2.467928173951359e-05 -5.055889031538198e-05
3.943718967460917e-05 2.627391123389240e-05 5.444063258288707e-05
-3.943718967460917e-05 -2.627391123389240e-05 -5.444063258288707e-05
4.180883201347906e-05 2.803341936482522e-05 5.877674944088109e-05
-4.180883201347906e-05 -2.803341936482522e-05 -5.877674944088109e-05
4.439839691422269e-05 2.997237468199847e-05 6.361648536387962e-05
-4.439839691422269e-05 -2.997237468199847e-05 -6.361648536387962e-05
4.722038849744370e-05 3.210604198988515e-05 6.901301868155284e-05
-4.722038849744370e-05 -3.210604198988515e-05 -6.901301868155284e-05
5.028902902923882e-05 3.445016823516631e-05 7.502310384193825e-05
-5.028902902923882e-05 -3.445016823516631e-05 -7.502310384193825e-05
5.361780645347929e-05 3.702067856197754e-05 8.170643202185502e-05
-5.361780645347929e-05 -3.702067856197754e-05 -8.170643202185502e-05
5.721891263892289e-05 3.983326392414813e-05 8.912462996042241e-05
-5.721891263892289e-05 -3.983326392414813e-05 -8.912462996042241e-05
6.110256336154789e-05 4.290284127168558e-05 9.733980767219986e-05
-6.110256336154789e-05 -4.290284127168558e-05 -9.733980767219986e-05
6.527619574872181e-05 4.624286851140806e-05 1.064125606347433e-04
-6.527619574872181e-05 -4.624286851140806e-05 -1.064125606347433e-04
6.974354601012868e-05 4.986449987206615e-05 1.163993341574218e-04
-6.974354601012868e-05 -4.986449987206615e-05 -1.163993341574218e-04
7.450362009050163e-05 5.377557376172832e-05 1.273490707167564e-04
-7.450362009050163e-05 -5.377557376172832e-05 -1.273490707167564e-04
7.954958250546730e-05 5.797943547629877e-05 1.392990894772166e-04
-7.954958250546730e-05 -5.797943547629877e-05 -1.392990894772166e-04
8.486760381813003e-05 6.247361186364776e-05 1.522701955475936e-04
-8.486760381813003e-05 -6.247361186364776e-05 -1.522701955475936e-04
9.043572424238477e-05 6.724837460782511e-05 1.662610886548546e-04
-9.043572424238477e-05 -6.724837460782511e-05 -1.662610886548546e-04
9.622280837047985e-05 7.228525293718173e-05 1.812422389158566e-04
-9.622280837047985e-05 -7.228525293718173e-05 -1.812422389158566e-04
1.021876820056981e-04 7.755558418076274e-05 1.971495199073862e-04
-1.021876820056981e-04 -7.755558418076274e-05 -1.971495199073862e-04
1.082785539276637e-04 8.301921946446162e-05 2.138780297357194e-04
-1.082785539276637e-04 -8.301921946446162e-05 -2.138780297357194e-04
1.144328301529267e-04 8.862352840588606e-05 2.312766759224592e-04
-1.144328301529267e-04 -8.862352840588606e-05 -2.312766759224592e-04
1.205774229533428e-04 9.430286610586840e-05 2.491442285656925e-04
-1.205774229533428e-04 -9.430286610586840e-05 -2.491442285656925e-04
1.266296392702341e-04 9.997867228482667e-05 2.672276301770413e-04
-1.266296392702341e-04 -9.997867228482667e-05 -2.672276301770413e-04
1.324987022183752e-04 1.055603601402191e-04 2.852233572657824e-04
-1.324987022183752e-04 -1.055603601402191e-04 -2.852233572657824e-04
1.380879159979762e-04 1.109471164791916e-04 3.027825266979471e-04
-1.380879159979762e-04 -1.109471164791916e-04 -3.027825266979471e-04
1.432974318194786e-04 1.160306724654960e-04 3.195202067121335e-04
-1.432974318194786e-04 -1.160306724654960e-04 -3.195202067121335e-04
1.480275155933906e-04 1.206990174648701e-04 3.350290240941177e-04
-1.480275155933906e-04 -1.206990174648701e-04 -3.350290240941177e-04
1.521821638548134e-04 1.248409236666293e-04 3.488966777911153e-04
-1.521821638548134e-04 -1.248409236666293e-04 -3.488966777911153e-04
1.556728700122487e-04 1.283510386346524e-04 3.607264288005138e-04
-1.556728700122487e-04 -1.283510386346524e-04 -3.607264288005138e-04
1.584223163755164e-04 1.311352046159013e-04 3.701591224498965e-04
-1.584223163755164e-04 -1.311352046159013e-04 -3.701591224498965e-04
1.603677766049007e-04 1.331156095761682e-04 3.768949568528502e-04
-1.603677766049007e-04 -1.331156095761682e-04 -3.768949568528502e-04
1.614642902643023e-04 1.342356177769874e-04 3.807139386710481e-04
-1.614642902643023e-04 -1.342356177769874e-04 -3.807139386710481e-04
1.619816808387224e-04 1.347650466513689e-04 3.825215644650996e-04
-1.619816808387224e-04 -1.347650466513689e-04 -3.825215644650996e-04
1.630917289460856e-04 1.359029854802453e-04 3.864119888257168e-04
-1.630917289460856e-04 -1.359029854802453e-04 -3.864119888257168e-04
1.651077131945822e-04 1.379768304048863e-04 3.935201410302286e-04
-1.651077131945822e-04 -1.379768304048863e-04 -3.935201410302286e-04
1.680629287674768e-04 1.410337117760580e-04 4.040396497484158e-04
-1.680629287674768e-04 -1.410337117760580e-04 -4.040396497484158e-04
1.720058294062571e-04 1.451435803908614e-04 4.182603662724534e-04
-1.720058294062571e-04 -1.451435803908614e-04 -4.182603662724534e-04
1.770013989574163e-04 1.504024248493880e-04 4.365838927069490e-04
-1.770013989574163e-04 -1.504024248493880e-04 -4.365838927069490e-04
1.831325103304433e-04 1.569363227056546e-04 4.595440776124224e-04
-1.831325103304433e-04 -1.569363227056546e-04 -4.595440776124224e-04
1.905015298815388e-04 1.649068660670078e-04 4.878350179366549e-04
-1.905015298815388e-04 -1.649068660670078e-04 -4.878350179366549e-04
1.992321284045538e-04 1.745183256336270e-04 5.223488211764104e-04
-1.992321284045538e-04 -1.745183256336270e-04 -5.223488211764104e-04
2.094711856945416e-04 1.860270206440930e-04 5.642261843854146e-04
-2.094711856945416e-04 -1.860270206440930e-04 -5.642261843854146e-04
2.213905793710976e-04 1.997535209920199e-04 6.149240333275849e-04
-2.213905793710976e-04 -1.997535209920199e-04 -6.149240333275849e-04
2.351884936976755e-04 2.160985223394149e-04 6.763061321845929e-04
-2.351884936976755e-04 -2.160985223394149e-04 -6.763061321845929e-04
2.510896327824311e-04 2.355635235503110e-04 7.507649260383372e-04
-2.510896327824311e-04 -2.355635235503110e-04 -7.507649260383372e-04
2.693433171737319e-04 2.587778249168084e-04 8.413862206611379e-04
-2.693433171737319e-04 -2.587778249168084e-04 -8.413862206611379e-04
2.902177920738149e-04 2.865338919428980e-04 9.521730872095972e-04
-2.902177920738149e-04 -2.865338919428980e-04 -9.521730872095972e-04
3.139880334362696e-04 3.198338419756391e-04 1.088352267328854e-03
-3.139880334362696e-04 -3.198338419756391e-04 -1.088352267328854e-03
3.409126722232818e-04 3.599507747949669e-04 1.256796328881101e-03
-3.409126722232818e-04 -3.599507747949669e-04 -1.256796328881101e-03
3.711929946990634e-04 4.085099677431642e-04 1.466609337680930e-03
-3.711929946990634e-04 -4.085099677431642e-04 -1.466609337680930e-03
4.049027223655350e-04 4.675966965211621e-04 1.729945016426029e-03
-4.049027223655350e-04 -4.675966965211621e-04 -1.729945016426029e-03
4.418704781526813e-04 5.398997480180961e-04 2.063157427154944e-03
-4.418704781526813e-04 -5.398997480180961e-04 -2.063157427154944e-03
4.814859925907338e-04 6.289026890572114e-04 2.488429771423903e-03
-4.814859925907338e-04 -6.289026890572114e-04 -2.488429771423903e-03
5.223838022669926e-04 7.391387374553572e-04 3.036093634087419e-03
-5.223838022669926e-04 -7.391387374553572e-04 -3.036093634087419e-03
5.619307003565259e-04 8.765296181449661e-04 3.747948309740163e-03
-5.619307003565259e-04 -8.765296181449661e-04 -3.747948309740163e-03
5.953997634480419e-04 1.048833735559391e-03 4.682030464979690e-03
-5.953997634480419e-04 -1.048833735559391e-03 -4.682030464979690e-03
6.146458079595734e-04 1.266233332340957e-03 5.919484279250689e-03
-6.146458079595734e-04 -1.266233332340957e-03 -5.919484279250689e-03
6.059923819028785e-04 1.542091634876717e-03 7.574458547752802e-03
-6.059923819028785e-04 -1.542091634876717e-03 -7.574458547752802e-03
5.468828589916898e-04 1.893904274883971e-03 9.808321275014954e-03
-5.468828589916898e-04 -1.893904274883971e-03 -9.808321275014954e-03
4.006204201528281e-04 2.344444700078827e-03 1.284992062350166e-02
-4.006204201528281e-04 -2.344444700078827e-03 -1.284992062350166e-02
1.082138179094419e-04 2.923042765753712e-03 1.702405197545434e-02
-1.082138179094419e-04 -2.923042765753712e-03 -1.702405197545434e-02
-4.240194749348215e-04 3.666807785201494e-03 2.279046999351677e-02
4.240194749348215e-04 -3.666807785201494e-03 -2.279046999351677e-02
-1.342748669599493e-03 4.621360614753816e-03 3.079511256692344e-02
1.342748669599493e-03 -4.621360614753816e-03 -3.079511256692344e-02
-2.873390632034552e-03 5.840196076001856e-03 4.193235191351125e-02
2.873390632034552e-03 -5.840196076001856e-03 -4.193235191351125e-02
-5.353589278910931e-03 7.381052094228325e-03 5.740931079815344e-02
5.353589278910931e-03 -7.381052094228325e-03 -5.740931079815344e-02
-9.270310211116177e-03 9.296505325366054e-03 7.878527147666674e-02
9.270310211116177e-03 -9.296505325366054e-03 -7.878527147666674e-02
-1.528546168772663e-02 1.161443993244474e-02 1.079217376490914e-01
1.528546168772663e-02 -1.161443993244474e-02 -1.079217376490914e-01
-2.421138572963747e-02 1.430256263472839e-02 1.467095853162685e-01
2.421138572963747e-02 -1.430256263472839e-02 -1.467095853162685e-01
-3.685562209958835e-02 1.721203854482941e-02 1.963375795517678e-01
3.685562209958835e-02 -1.721203854482941e-02 -1.963375795517678e-01
-5.360358429465537e-02 2.000499156095184e-02 2.557936596303022e-01
5.360358429465537e-02 -2.000499156095184e-02 -2.557936596303022e-01
-7.361494036389725e-02 2.209968861766116e-02 3.194808259433455e-01
7.361494036389725e-02 -2.209968861766116e-02 -3.194808259433455e-01
-9.374002867872193e-02 2.271569164385141e-02 3.747071838216122e-01
9.374002867872193e-02 -2.271569164385141e-02 -3.747071838216122e-01
-1.078524334633780e-01 2.111962662301509e-02 4.014300374680009e-01
1.078524334633780e-01 -2.111962662301509e-02 -4.014300374680009e-01
-1.078644308459398e-01 1.705704962897824e-02 3.774146482976707e-01
1.078644308459398e-01 -1.705704962897824e-02 -3.774146482976707e-01
-8.709927267180061e-02 1.110323920589755e-02 2.889536587678478e-01
8.709927267180061e-02 -1.110323920589755e-02 -2.889536587678478e-01
-4.444361143528939e-02 4.558317367650789e-03 1.408889158306436e-01
4.444361143528939e-02 -4.558317367650789e-03 -1.408889158306436e-01
1.403159547824319e-02 -1.157010775437882e-03 -4.281075567974095e-02
-1.403159547824319e-02 1.157010775437882e-03 4.281075567974095e-02
7.766346039120280e-02 -5.161349703637895e-03 -2.295996267086349e-01
-7.766346039120280e-02 5.161349703637895e-03 2.295996267086349e-01
1.359815176561848e-01 -7.351642103143894e-03 -3.920320740745774e-01
-1.359815176561848e-01 7.351642103143894e-03 3.920320740745774e-01
1.821873655724532e-01 -8.180664468521165e-03 -5.153638570396513e-01
-1.821873655724532e-01 8.180664468521165e-03 5.153638570396513e-01
2.137182389272372e-01 -8.273895919666017e-03 -5.967288173114621e-01
-2.137182389272372e-01 8.273895919666017e-03 5.967288173114621e-01
2.307270453891277e-01 -8.150934034975301e-03 -6.395943166680884e-01
-2.307270453891277e-01 8.150934034975301e-03 6.395943166680884e-01
2.385114717746814e-01 -8.050596651917425e-03 -6.589517885703355e-01
-2.385114717746814e-01 8.050596651917425e-03 6.589517885703355e-01
2.546115431329460e-01 -7.747485901943978e-03 -6.984219259487821e-01
-2.546115431329460e-01 7.747485901943978e-03 6.984219259487821e-01
2.814072527795985e-01 -6.912337686554714e-03 -7.621557235129774e-01
-2.814072527795985e-01 6.912337686554714e-03 7.621557235129774e-01
3.138027974727762e-01 -5.129587188234009e-03 -8.346330204088525e-01
-3.138027974727762e-01 5.129587188234009e-03 8.346330204088525e-01
3.418706643627529e-01 -2.062158146524807e-03 -8.884146295693128e-01
-3.418706643627529e-01 2.062158146524807e-03 8.884146295693128e-01
3.500635208948435e-01 2.128400667365137e-03 -8.846091811396398e-01
-3.500635208948435e-01 -2.128400667365137e-03 8.846091811396398e-01
3.203004387335264e-01 6.298184435387485e-03 -7.836462320128964e-01
-3.203004387335264e-01 -6.298184435387485e-03 7.836462320128964e-01
2.412145393592854e-01 8.294110011417721e-03 -5.691365898865438e-01
-2.412145393592854e-01 -8.294110011417721e-03 5.691365898865438e-01
1.202116701889797e-01 6.001022471557444e-03 -2.725807598071163e-01
-1.202116701889797e-01 -6.001022471557444e-03 2.725807598071163e-01
-1.306969134824194e-02 -8.622395289448159e-04 2.839414928111362e-02
1.306969134824194e-02 8.622395289448159e-04 -2.839414928111362e-02
-1.209308728631513e-01 -9.947932782211998e-03 2.510631572043460e-01
1.209308728631513e-01 9.947932782211998e-03 -2.510631572043460e-01
-1.801569549894961e-01 -1.775651628640971e-02 3.566403019206483e-01
1.801569549894961e-01 1.775651628640971e-02 -3.566403019206483e-01
-1.919910986442371e-01 -2.201645708529325e-02 3.617567978333798e-01
1.919910986442371e-01 2.201645708529325e-02 -3.617567978333798e-01
-1.732823253012277e-01 -2.260325817764802e-02 3.103332944739345e-01
1.732823253012277e-01 2.260325817764802e-02 -3.103332944739345e-01
-1.421200175339558e-01 -2.071259113400340e-02 2.416555011012437e-01
1.421200175339558e-01 2.071259113400340e-02 -2.416555011012437e-01
-1.102729302258333e-01 -1.769628813921916e-02 1.778851637355600e-01
1.102729302258333e-01 1.769628813921916e-02 -1.778851637355600e-01
-8.299362193022594e-02 -1.448967869026823e-02 1.269483704835405e-01
8.299362193022594e-02 1.448967869026823e-02 -1.269483704835405e-01
-6.154467213384132e-02 -1.157224757773058e-02 8.924306520515592e-02
6.154467213384132e-02 1.157224757773058e-02 -8.924306520515592e-02
-4.541536998928788e-02 -9.118515458253443e-03 6.242733401017451e-02
4.541536998928788e-02 9.118515458253443e-03 -6.242733401017451e-02
-3.356121835995034e-02 -7.142852692992257e-03 4.373909267526892e-02
3.356121835995034e-02 7.142852692992257e-03 -4.373909267526892e-02
-2.494000347532858e-02 -5.591148696928287e-03 3.082744135997067e-02
2.494000347532858e-02 5.591148696928287e-03 -3.082744135997067e-02
-1.868824947439672e-02 -4.388989259822380e-03 2.191975743004838e-02
1.868824947439672e-02 4.388989259822380e-03 -2.191975743004838e-02
-1.414599969964374e-02 -3.463734537379153e-03 1.575453194616626e-02
1.414599969964374e-02 3.463734537379153e-03 -1.575453194616626e-02
-1.082897046223721e-02 -2.752908392160567e-03 1.146034457643975e-02
1.082897046223721e-02 2.752908392160567e-03 -1.146034457643975e-02
-8.389268479921904e-03 -2.206057725699722e-03 8.444177910995908e-03
8.389268479921904e-03 2.206057725699722e-03 -8.444177910995908e-03
-6.579555877959978e-03 -1.783841323208208e-03 6.304966065084236e-03
6.579555877959978e-03 1.783841323208208e-03 -6.304966065084236e-03
-5.224631206887787e-03 -1.456191841716145e-03 4.771636368870075e-03
5.224631206887787e-03 1.456191841716145e-03 -4.771636368870075e-03
-4.200310647149755e-03 -1.200383311079971e-03 3.660420559124034e-03
4.200310647149755e-03 1.200383311079971e-03 -3.660420559124034e-03
-3.418261725654773e-03 -9.993303771134311e-04 2.846050487861459e-03
3.418261725654773e-03 9.993303771134311e-04 -2.846050487861459e-03
-2.815310317172666e-03 -8.402078744860715e-04 2.242522775314656e-03
2.815310317172666e-03 8.402078744860715e-04 -2.242522775314656e-03
-2.345970718945128e-03 -7.133781184671914e-04 1.790302781441026e-03
2.345970718945128e-03 7.133781184671914e-04 -1.790302781441026e-03
-1.977245361757157e-03 -6.115778589195237e-04 1.447808697997082e-03
1.977245361757157e-03 6.115778589195237e-04 -1.447808697997082e-03
-1.685003457217553e-03 -5.293108285410950e-04 1.185725532752122e-03
1.685003457217553e-03 5.293108285410950e-04 -1.185725532752122e-03
-1.451452011267137e-03 -4.623974247981968e-04 9.831887494589607e-04
1.451452011267137e-03 4.623974247981968e-04 -9.831887494589607e-04
-1.263361635124111e-03 -4.076420533800536e-04 8.252060130096536e-04
1.263361635124111e-03 4.076420533800536e-04 -8.252060130096536e-04
-1.110814752714498e-03 -3.625875479485885e-04 7.009024314170366e-04
1.110814752714498e-03 3.625875479485885e-04 -7.009024314170366e-04