<?xml version="1.0" ?> 
<!-- 
# vtk DataFile Version 3.0
-->
<VTKFile type="UnstructuredGrid" version="0.1" compressor="vtkZLibDataCompressor" byte_order="LittleEndian">
  <UnstructuredGrid>
    <FieldData>
      <DataArray type="Float64" Name="TIME" NumberOfTuples="1" format="ascii">
9.999999999999999e-01 
      </DataArray>
    </FieldData>

    <Piece NumberOfPoints="320" NumberOfCells="40" >
      <Points>
        <DataArray type="Float64" NumberOfComponents="3" format="ascii">
-5.000000000000000e-01 -5.000000000000000e-01 5.000000000000000e+00
-5.000000000000000e-01 -5.000000000000000e-01 4.500000000000000e+00
-5.000000000000000e-01 0.000000000000000e+00 4.500000000000000e+00
-5.000000000000000e-01 0.000000000000000e+00 5.000000000000000e+00
0.000000000000000e+00 -5.000000000000000e-01 5.000000000000000e+00
0.000000000000000e+00 -5.000000000000000e-01 4.500000000000000e+00
0.000000000000000e+00 0.000000000000000e+00 4.500000000000000e+00
0.000000000000000e+00 0.000000000000000e+00 5.000000000000000e+00
-5.000000000000000e-01 -5.000000000000000e-01 4.500000000000000e+00
-5.000000000000000e-01 -5.000000000000000e-01 4.000000000000000e+00
-5.000000000000000e-01 0.000000000000000e+00 4.000000000000000e+00
-5.000000000000000e-01 0.000000000000000e+00 4.500000000000000e+00
0.000000000000000e+00 -5.000000000000000e-01 4.500000000000000e+00
0.000000000000000e+00 -5.000000000000000e-01 4.000000000000000e+00
0.000000000000000e+00 0.000000000000000e+00 4.000000000000000e+00
0.000000000000000e+00 0.000000000000000e+00 4.500000000000000e+00
-5.000000000000000e-01 -5.000000000000000e-01 4.000000000000000e+00
-5.000000000000000e-01 -5.000000000000000e-01 3.500000000000000e+00
-5.000000000000000e-01 0.000000000000000e+00 3.500000000000000e+00
-5.000000000000000e-01 0.000000000000000e+00 4.000000000000000e+00
0.000000000000000e+00 -5.000000000000000e-01 4.000000000000000e+00
0.000000000000000e+00 -5.000000000000000e-01 3.500000000000000e+00
0.000000000000000e+00 0.000000000000000e+00 3.500000000000000e+00
0.000000000000000e+00 0.000000000000000e+00 4.000000000000000e+00
-5.000000000000000e-01 -5.000000000000000e-01 3.500000000000000e+00
-5.000000000000000e-01 -5.000000000000000e-01 3.000000000000000e+00
-5.000000000000000e-01 0.000000000000000e+00 3.000000000000000e+00
-5.000000000000000e-01 0.000000000000000e+00 3.500000000000000e+00
0.000000000000000e+00 -5.000000000000000e-01 3.500000000000000e+00
0.000000000000000e+00 -5.000000000000000e-01 3.000000000000000e+00
0.000000000000000e+00 0.000000000000000e+00 3.000000000000000e+00
0.000000000000000e+00 0.000000000000000e+00 3.500000000000000e+00
-5.000000000000000e-01 -5.000000000000000e-01 3.000000000000000e+00
-5.000000000000000e-01 -5.000000000000000e-01 2.500000000000000e+00
-5.000000000000000e-01 0.000000000000000e+00 2.500000000000000e+00
-5.000000000000000e-01 0.000000000000000e+00 3.000000000000000e+00
0.000000000000000e+00 -5.000000000000000e-01 3.000000000000000e+00
0.000000000000000e+00 -5.000000000000000e-01 2.500000000000000e+00
0.000000000000000e+00 0.000000000000000e+00 2.500000000000000e+00
0.000000000000000e+00 0.000000000000000e+00 3.000000000000000e+00
-5.000000000000000e-01 -5.000000000000000e-01 2.500000000000000e+00
-5.000000000000000e-01 -5.000000000000000e-01 2.000000000000000e+00
-5.000000000000000e-01 0.000000000000000e+00 2.000000000000000e+00
-5.000000000000000e-01 0.000000000000000e+00 2.500000000000000e+00
0.000000000000000e+00 -5.000000000000000e-01 2.500000000000000e+00
0.000000000000000e+00 -5.000000000000000e-01 2.000000000000000e+00
0.000000000000000e+00 0.000000000000000e+00 2.000000000000000e+00
0.000000000000000e+00 0.000000000000000e+00 2.500000000000000e+00
-5.000000000000000e-01 -5.000000000000000e-01 2.000000000000000e+00
-5.000000000000000e-01 -5.000000000000000e-01 1.500000000000000e+00
-5.000000000000000e-01 0.000000000000000e+00 1.500000000000000e+00
-5.000000000000000e-01 0.000000000000000e+00 2.000000000000000e+00
0.000000000000000e+00 -5.000000000000000e-01 2.000000000000000e+00
0.000000000000000e+00 -5.000000000000000e-01 1.500000000000000e+00
0.000000000000000e+00 0.000000000000000e+00 1.500000000000000e+00
0.000000000000000e+00 0.000000000000000e+00 2.000000000000000e+00
-5.000000000000000e-01 -5.000000000000000e-01 1.500000000000000e+00
-5.000000000000000e-01 -5.000000000000000e-01 1.000000000000000e+00
-5.000000000000000e-01 0.000000000000000e+00 1.000000000000000e+00
-5.000000000000000e-01 0.000000000000000e+00 1.500000000000000e+00
0.000000000000000e+00 -5.000000000000000e-01 1.500000000000000e+00
0.000000000000000e+00 -5.000000000000000e-01 1.000000000000000e+00
0.000000000000000e+00 0.000000000000000e+00 1.000000000000000e+00
0.000000000000000e+00 0.000000000000000e+00 1.500000000000000e+00
-5.000000000000000e-01 -5.000000000000000e-01 1.000000000000000e+00
-5.000000000000000e-01 -5.000000000000000e-01 5.000000000000000e-01
-5.000000000000000e-01 0.000000000000000e+00 5.000000000000000e-01
-5.000000000000000e-01 0.000000000000000e+00 1.000000000000000e+00
0.000000000000000e+00 -5.000000000000000e-01 1.000000000000000e+00
0.000000000000000e+00 -5.000000000000000e-01 5.000000000000000e-01
0.000000000000000e+00 0.000000000000000e+00 5.000000000000000e-01
0.000000000000000e+00 0.000000000000000e+00 1.000000000000000e+00
-5.000000000000000e-01 -5.000000000000000e-01 5.000000000000000e-01
-5.000000000000000e-01 -5.000000000000000e-01 0.000000000000000e+00
-5.000000000000000e-01 0.000000000000000e+00 0.000000000000000e+00
-5.000000000000000e-01 0.000000000000000e+00 5.000000000000000e-01
0.000000000000000e+00 -5.000000000000000e-01 5.000000000000000e-01
0.000000000000000e+00 -5.000000000000000e-01 0.000000000000000e+00
0.000000000000000e+00 0.000000000000000e+00 0.000000000000000e+00
0.000000000000000e+00 0.000000000000000e+00 5.000000000000000e-01
-5.000000000000000e-01 0.000000000000000e+00 5.000000000000000e+00
-5.000000000000000e-01 0.000000000000000e+00 4.500000000000000e+00
-5.000000000000000e-01 5.000000000000000e-01 4.500000000000000e+00
-5.000000000000000e-01 5.000000000000000e-01 5.000000000000000e+00
0.000000000000000e+00 0.000000000000000e+00 5.000000000000000e+00
0.000000000000000e+00 0.000000000000000e+00 4.500000000000000e+00
0.000000000000000e+00 5.000000000000000e-01 4.500000000000000e+00
0.000000000000000e+00 5.000000000000000e-01 5.000000000000000e+00
-5.000000000000000e-01 0.000000000000000e+00 4.500000000000000e+00
-5.000000000000000e-01 0.000000000000000e+00 4.000000000000000e+00
-5.000000000000000e-01 5.000000000000000e-01 4.000000000000000e+00
-5.000000000000000e-01 5.000000000000000e-01 4.500000000000000e+00
0.000000000000000e+00 0.000000000000000e+00 4.500000000000000e+00
0.000000000000000e+00 0.000000000000000e+00 4.000000000000000e+00
0.000000000000000e+00 5.000000000000000e-01 4.000000000000000e+00
0.000000000000000e+00 5.000000000000000e-01 4.500000000000000e+00
-5.000000000000000e-01 0.000000000000000e+00 4.000000000000000e+00
-5.000000000000000e-01 0.000000000000000e+00 3.500000000000000e+00
-5.000000000000000e-01 5.000000000000000e-01 3.500000000000000e+00
-5.000000000000000e-01 5.000000000000000e-01 4.000000000000000e+00
0.000000000000000e+00 0.000000000000000e+00 4.000000000000000e+00
0.000000000000000e+00 0.000000000000000e+00 3.500000000000000e+00
0.000000000000000e+00 5.000000000000000e-01 3.500000000000000e+00
0.000000000000000e+00 5.000000000000000e-01 4.000000000000000e+00
-5.000000000000000e-01 0.000000000000000e+00 3.500000000000000e+00
-5.000000000000000e-01 0.000000000000000e+00 3.000000000000000e+00
-5.000000000000000e-01 5.000000000000000e-01 3.000000000000000e+00
-5.000000000000000e-01 5.000000000000000e-01 3.500000000000000e+00
0.000000000000000e+00 0.000000000000000e+00 3.500000000000000e+00
0.000000000000000e+00 0.000000000000000e+00 3.000000000000000e+00
0.000000000000000e+00 5.000000000000000e-01 3.000000000000000e+00
0.000000000000000e+00 5.000000000000000e-01 3.500000000000000e+00
-5.000000000000000e-01 0.000000000000000e+00 3.000000000000000e+00
-5.000000000000000e-01 0.000000000000000e+00 2.500000000000000e+00
-5.000000000000000e-01 5.000000000000000e-01 2.500000000000000e+00
-5.000000000000000e-01 5.000000000000000e-01 3.000000000000000e+00
0.000000000000000e+00 0.000000000000000e+00 3.000000000000000e+00
0.000000000000000e+00 0.000000000000000e+00 2.500000000000000e+00
0.000000000000000e+00 5.000000000000000e-01 2.500000000000000e+00
0.000000000000000e+00 5.000000000000000e-01 3.000000000000000e+00
-5.000000000000000e-01 0.000000000000000e+00 2.500000000000000e+00
-5.000000000000000e-01 0.000000000000000e+00 2.000000000000000e+00
-5.000000000000000e-01 5.000000000000000e-01 2.000000000000000e+00
-5.000000000000000e-01 5.000000000000000e-01 2.500000000000000e+00
0.000000000000000e+00 0.000000000000000e+00 2.500000000000000e+00
0.000000000000000e+00 0.000000000000000e+00 2.000000000000000e+00
0.000000000000000e+00 5.000000000000000e-01 2.000000000000000e+00
0.000000000000000e+00 5.000000000000000e-01 2.500000000000000e+00
-5.000000000000000e-01 0.000000000000000e+00 2.000000000000000e+00
-5.000000000000000e-01 0.000000000000000e+00 1.500000000000000e+00
-5.000000000000000e-01 5.000000000000000e-01 1.500000000000000e+00
-5.000000000000000e-01 5.000000000000000e-01 2.000000000000000e+00
0.000000000000000e+00 0.000000000000000e+00 2.000000000000000e+00
0.000000000000000e+00 0.000000000000000e+00 1.500000000000000e+00
0.000000000000000e+00 5.000000000000000e-01 1.500000000000000e+00
0.000000000000000e+00 5.000000000000000e-01 2.000000000000000e+00
-5.000000000000000e-01 0.000000000000000e+00 1.500000000000000e+00
-5.000000000000000e-01 0.000000000000000e+00 1.000000000000000e+00
-5.000000000000000e-01 5.000000000000000e-01 1.000000000000000e+00
-5.000000000000000e-01 5.000000000000000e-01 1.500000000000000e+00
0.000000000000000e+00 0.000000000000000e+00 1.500000000000000e+00
0.000000000000000e+00 0.000000000000000e+00 1.000000000000000e+00
[...]
  <PointData>
        <DataArray type="Float64" Name="displacement" NumberOfComponents="3" format="ascii">
9.425369963105490e-01 1.889694408149079e+00 -5.957545092648893e-02
6.819494911889173e-01 1.336517701098175e+00 2.868108155261776e-01
5.683290332166323e-01 1.076458117355870e+00 -6.700761002010472e-02
8.459861484172259e-01 1.601944132603706e+00 -4.503869037811473e-01
8.550680092137124e-01 1.776172258985185e+00 -2.571156496093258e-01
5.929353443291484e-01 1.233674813750077e+00 1.080504276770404e-01
4.772222879457257e-01 9.409643974181775e-01 -2.542113959555904e-01
7.439538480803735e-01 1.467730072367548e+00 -6.531370970561571e-01
6.819494911889173e-01 1.336517701098175e+00 2.868108155261776e-01
4.054862771466377e-01 7.579993254593915e-01 4.942846218659934e-01
2.963231144408873e-01 5.380082641201416e-01 2.312009469419718e-01
5.683290332166323e-01 1.076458117355870e+00 -6.700761002010472e-02
5.929353443291484e-01 1.233674813750077e+00 1.080504276770404e-01
3.141633446468478e-01 6.707315994750049e-01 3.774335232466415e-01
2.164815827088207e-01 4.338364862046629e-01 6.026003737364177e-02
4.772222879457257e-01 9.409643974181775e-01 -2.542113959555904e-01
4.054862771466377e-01 7.579993254593915e-01 4.942846218659934e-01
1.680626653327959e-01 2.680138660345942e-01 5.011659218880747e-01
6.560319041707645e-02 8.996857480787948e-02 3.215550682116683e-01
2.963231144408873e-01 5.380082641201416e-01 2.312009469419718e-01
3.141633446468478e-01 6.707315994750049e-01 3.774335232466415e-01
8.145511202503805e-02 1.968522772677654e-01 4.245644127583612e-01
2.036630298609106e-02 3.433878668726894e-02 2.124747089849791e-01
2.164815827088207e-01 4.338364862046629e-01 6.026003737364177e-02
1.680626653327959e-01 2.680138660345942e-01 5.011659218880747e-01
3.679993288212337e-02 1.049613038580747e-02 3.209460680890434e-01
-1.880973064212154e-02 -1.046178100803638e-01 2.133167733214889e-01
6.560319041707645e-02 8.996857480787948e-02 3.215550682116683e-01
8.145511202503805e-02 1.968522772677654e-01 4.245644127583612e-01
-3.568843005208633e-02 -2.204010416185069e-02 2.706912981673110e-01
-4.524046042452950e-02 -1.036556322712335e-01 1.729037054367953e-01
2.036630298609106e-02 3.433878668726894e-02 2.124747089849791e-01
3.679993288212337e-02 1.049613038580747e-02 3.209460680890434e-01
1.792195741332618e-02 -3.385365812521308e-02 1.411177695773098e-01
5.996945938956415e-03 -7.869330193495837e-02 1.062206403412222e-01
-1.880973064212154e-02 -1.046178100803638e-01 2.133167733214889e-01
-3.568843005208633e-02 -2.204010416185069e-02 2.706912981673110e-01
-4.151524554552015e-02 -2.908320592114497e-02 1.208823990220133e-01
-2.987855224437471e-02 -6.122367505536572e-02 1.046264239789705e-01
-4.524046042452950e-02 -1.036556322712335e-01 1.729037054367953e-01
1.792195741332618e-02 -3.385365812521308e-02 1.411177695773098e-01
2.418747956331182e-02 2.487616058959231e-02 4.983374371768975e-02
2.289778407783346e-02 5.789613130308726e-03 4.252935856822728e-02
5.996945938956415e-03 -7.869330193495837e-02 1.062206403412222e-01
-4.151524554552015e-02 -2.908320592114497e-02 1.208823990220133e-01
1.740675169597668e-03 2.747845636952992e-02 3.685129890171014e-02
3.908131834108222e-03 8.333839680778268e-03 3.708696891048765e-02
-2.987855224437471e-02 -6.122367505536572e-02 1.046264239789705e-01
2.418747956331182e-02 2.487616058959231e-02 4.983374371768975e-02
2.384889669794589e-03 8.111074209313123e-03 9.668738062950181e-03
3.706085788310077e-03 5.054765238013834e-03 6.453005080821192e-03
2.289778407783346e-02 5.789613130308726e-03 4.252935856822728e-02
1.740675169597668e-03 2.747845636952992e-02 3.685129890171014e-02
2.801930181229336e-03 5.561302195790025e-03 5.553172131124428e-03
1.775328185365824e-03 3.580270125323366e-03 1.659821898081096e-03
3.908131834108222e-03 8.333839680778268e-03 3.708696891048765e-02
2.384889669794589e-03 8.111074209313123e-03 9.668738062950181e-03
-5.135551118184519e-04 -2.644682703737420e-03 4.561012401450021e-04
-1.374663860528279e-03 -2.367902680790874e-03 -3.226669511227412e-04
3.706085788310077e-03 5.054765238013834e-03 6.453005080821192e-03
2.801930181229336e-03 5.561302195790025e-03 5.553172131124428e-03
-1.166500182895584e-03 -2.526667753466945e-03 7.065134866436675e-04
-1.057418123173231e-03 -2.075601407040525e-03 -7.584540705354109e-04
1.775328185365824e-03 3.580270125323366e-03 1.659821898081096e-03
-5.135551118184519e-04 -2.644682703737420e-03 4.561012401450021e-04
2.904336691232552e-04 5.242894439719544e-04 -3.016235394383018e-04
2.822741674065210e-04 4.004904130513901e-04 -1.569549326675919e-04
-1.374663860528279e-03 -2.367902680790874e-03 -3.226669511227412e-04
-1.166500182895584e-03 -2.526667753466945e-03 7.065134866436675e-04
1.739316713082011e-04 5.834847912864470e-04 -4.318146041540430e-04
2.075858654165208e-04 3.898765786189568e-04 1.536072917534698e-04
-1.057418123173231e-03 -2.075601407040525e-03 -7.584540705354109e-04
2.904336691232552e-04 5.242894439719544e-04 -3.016235394383018e-04
-1.246417278673059e-04 -2.236370131917088e-05 6.453778008337813e-06
-1.589671666057650e-05 4.231531690437249e-05 2.712592527257641e-05
2.822741674065210e-04 4.004904130513901e-04 -1.569549326675919e-04
1.739316713082011e-04 5.834847912864470e-04 -4.318146041540430e-04
2.982649649237660e-05 -4.690568049307075e-05 2.515007380532203e-05
1.290507693143626e-05 3.131684694446408e-05 -1.088344182860272e-05
2.075858654165208e-04 3.898765786189568e-04 1.536072917534698e-04
8.459861484172259e-01 1.601944132603706e+00 -4.503869037811473e-01
5.683290332166323e-01 1.076458117355870e+00 -6.700761002010472e-02
4.185930717887993e-01 8.246236386528683e-01 -4.446999691488895e-01
7.218697458001875e-01 1.317014722408457e+00 -8.420382462461034e-01
7.439538480803735e-01 1.467730072367548e+00 -6.531370970561571e-01
4.772222879457257e-01 9.409643974181775e-01 -2.542113959555904e-01
3.269002938284257e-01 6.741997432419037e-01 -6.354395704519651e-01
5.924684718453670e-01 1.156812348473290e+00 -1.060213233682461e+00
5.683290332166323e-01 1.076458117355870e+00 -6.700761002010472e-02
2.963231144408873e-01 5.380082641201416e-01 2.312009469419718e-01
1.918454846143715e-01 3.517496486049324e-01 -9.015220639468501e-02
4.185930717887993e-01 8.246236386528683e-01 -4.446999691488895e-01
4.772222879457257e-01 9.409643974181775e-01 -2.542113959555904e-01
2.164815827088207e-01 4.338364862046629e-01 6.026003737364177e-02
1.175788651159487e-01 2.473006083356212e-01 -3.040044448829205e-01
3.269002938284257e-01 6.741997432419037e-01 -6.354395704519651e-01
2.963231144408873e-01 5.380082641201416e-01 2.312009469419718e-01
6.560319041707645e-02 8.996857480787948e-02 3.215550682116683e-01
-5.401504489720630e-02 -1.241507239302742e-02 1.580491302949504e-01
1.918454846143715e-01 3.517496486049324e-01 -9.015220639468501e-02
2.164815827088207e-01 4.338364862046629e-01 6.026003737364177e-02
2.036630298609106e-02 3.433878668726894e-02 2.124747089849791e-01
-8.216302242351545e-02 -8.882079878807771e-02 -2.492030161729459e-02
1.175788651159487e-01 2.473006083356212e-01 -3.040044448829205e-01
6.560319041707645e-02 8.996857480787948e-02 3.215550682116683e-01
-1.880973064212154e-02 -1.046178100803638e-01 2.133167733214889e-01
-1.274661226844478e-01 -2.105319955931196e-01 1.123036132096306e-01
-5.401504489720630e-02 -1.241507239302742e-02 1.580491302949504e-01
2.036630298609106e-02 3.433878668726894e-02 2.124747089849791e-01
-4.524046042452950e-02 -1.036556322712335e-01 1.729037054367953e-01
-1.016911624155414e-01 -1.381751338001142e-01 8.361146194506758e-02
-8.216302242351545e-02 -8.882079878807771e-02 -2.492030161729459e-02
-1.880973064212154e-02 -1.046178100803638e-01 2.133167733214889e-01
5.996945938956415e-03 -7.869330193495837e-02 1.062206403412222e-01
-2.279727355837526e-02 -1.119010014366816e-01 8.650592214681951e-02
-1.274661226844478e-01 -2.105319955931196e-01 1.123036132096306e-01
-4.524046042452950e-02 -1.036556322712335e-01 1.729037054367953e-01
-2.987855224437471e-02 -6.122367505536572e-02 1.046264239789705e-01
-2.961612413361853e-02 -8.534326470418127e-02 1.054759691348752e-01
-1.016911624155414e-01 -1.381751338001142e-01 8.361146194506758e-02
5.996945938956415e-03 -7.869330193495837e-02 1.062206403412222e-01
2.289778407783346e-02 5.789613130308726e-03 4.252935856822728e-02
2.666720137605480e-02 -7.977060572786904e-03 5.374423888887245e-02
-2.279727355837526e-02 -1.119010014366816e-01 8.650592214681951e-02
-2.987855224437471e-02 -6.122367505536572e-02 1.046264239789705e-01
3.908131834108222e-03 8.333839680778268e-03 3.708696891048765e-02
6.606067706043428e-03 -9.259087157332559e-03 5.226845940825155e-02
-2.961612413361853e-02 -8.534326470418127e-02 1.054759691348752e-01
2.289778407783346e-02 5.789613130308726e-03 4.252935856822728e-02
3.706085788310077e-03 5.054765238013834e-03 6.453005080821192e-03
6.825072761821245e-03 1.100724817220251e-03 1.175847695145813e-02
2.666720137605480e-02 -7.977060572786904e-03 5.374423888887245e-02
3.908131834108222e-03 8.333839680778268e-03 3.708696891048765e-02
1.775328185365824e-03 3.580270125323366e-03 1.659821898081096e-03
1.096649063692421e-03 -4.355721637334073e-04 5.803351891678832e-03
6.606067706043428e-03 -9.259087157332559e-03 5.226845940825155e-02
3.706085788310077e-03 5.054765238013834e-03 6.453005080821192e-03
-1.374663860528279e-03 -2.367902680790874e-03 -3.226669511227412e-04
-2.192193622649223e-03 -2.479852151327599e-03 -8.043239968323661e-04
6.825072761821245e-03 1.100724817220251e-03 1.175847695145813e-02
1.775328185365824e-03 3.580270125323366e-03 1.659821898081096e-03
-1.057418123173231e-03 -2.075601407040525e-03 -7.584540705354109e-04
-1.132540961851116e-03 -1.314652776688110e-03 -1.749211895207437e-03
1.096649063692421e-03 -4.355721637334073e-04 5.803351891678832e-03
-1.374663860528279e-03 -2.367902680790874e-03 -3.226669511227412e-04
2.822741674065210e-04 4.004904130513901e-04 -1.569549326675919e-04
2.573209023126903e-04 5.887557099826519e-04 -1.219443582821604e-04
-2.192193622649223e-03 -2.479852151327599e-03 -8.043239968323661e-04
-1.057418123173231e-03 -2.075601407040525e-03 -7.584540705354109e-04
2.075858654165208e-04 3.898765786189568e-04 1.536072917534698e-04
2.924537426552281e-04 4.859279055996523e-04 3.653161633681300e-04
-1.132540961851116e-03 -1.314652776688110e-03 -1.749211895207437e-03
2.822741674065210e-04 4.004904130513901e-04 -1.569549326675919e-04
-1.589671666057650e-05 4.231531690437249e-05 2.712592527257641e-05
9.571810587882153e-05 1.321133499612733e-05 6.382996189510513e-05
2.573209023126903e-04 5.887557099826519e-04 -1.219443582821604e-04
2.075858654165208e-04 3.898765786189568e-04 1.536072917534698e-04
1.290507693143626e-05 3.131684694446408e-05 -1.088344182860272e-05
-1.262155227802710e-05 -7.537452742124549e-05 1.014163096255581e-05
2.924537426552281e-04 4.859279055996523e-04 3.653161633681300e-04
8.550680092137124e-01 1.776172258985185e+00 -2.571156496093258e-01
5.929353443291484e-01 1.233674813750077e+00 1.080504276770404e-01
4.772222879457257e-01 9.409643974181775e-01 -2.542113959555904e-01
7.439538480803735e-01 1.467730072367548e+00 -6.531370970561571e-01
7.631101830620369e-01 1.655019887095580e+00 -4.614882403015702e-01
5.138342273670539e-01 1.112752609105747e+00 -7.712704953047077e-02
4.023875996326514e-01 8.042558067913336e-01 -4.504937296607228e-01
6.384364244710951e-01 1.338230852107529e+00 -8.625627422620608e-01
5.929353443291484e-01 1.233674813750077e+00 1.080504276770404e-01
3.141633446468478e-01 6.707315994750049e-01 3.774335232466415e-01
2.164815827088207e-01 4.338364862046629e-01 6.026003737364177e-02
4.772222879457257e-01 9.409643974181775e-01 -2.542113959555904e-01
5.138342273670539e-01 1.112752609105747e+00 -7.712704953047077e-02
2.417148229422230e-01 5.785626352227640e-01 2.673121601556968e-01
1.648892958670704e-01 3.357171421053948e-01 -1.270278958279519e-01
4.023875996326514e-01 8.042558067913336e-01 -4.504937296607228e-01
3.141633446468478e-01 6.707315994750049e-01 3.774335232466415e-01
8.145511202503805e-02 1.968522772677654e-01 4.245644127583612e-01
2.036630298609106e-02 3.433878668726894e-02 2.124747089849791e-01
2.164815827088207e-01 4.338364862046629e-01 6.026003737364177e-02
2.417148229422230e-01 5.785626352227640e-01 2.673121601556968e-01
3.030291993202744e-02 1.194997078126044e-01 3.499312793791720e-01
2.189888812565515e-02 -3.920067782638440e-02 1.324020276340000e-01
1.648892958670704e-01 3.357171421053948e-01 -1.270278958279519e-01
8.145511202503805e-02 1.968522772677654e-01 4.245644127583612e-01
-3.568843005208633e-02 -2.204010416185069e-02 2.706912981673110e-01
-4.524046042452950e-02 -1.036556322712335e-01 1.729037054367953e-01
2.036630298609106e-02 3.433878668726894e-02 2.124747089849791e-01
3.030291993202744e-02 1.194997078126044e-01 3.499312793791720e-01
-1.023196045135238e-01 -1.021038846485762e-01 2.300833714285115e-01
-6.738704807705799e-02 -1.724654279837582e-01 1.255569755545911e-01
2.189888812565515e-02 -3.920067782638440e-02 1.324020276340000e-01
-3.568843005208633e-02 -2.204010416185069e-02 2.706912981673110e-01
-4.151524554552015e-02 -2.908320592114497e-02 1.208823990220133e-01
-2.987855224437471e-02 -6.122367505536572e-02 1.046264239789705e-01
-4.524046042452950e-02 -1.036556322712335e-01 1.729037054367953e-01
-1.023196045135238e-01 -1.021038846485762e-01 2.300833714285115e-01
-1.021031895050396e-01 -6.242903793155816e-02 1.038818205265129e-01
-6.208967936339722e-02 -7.217636404789220e-02 1.008248368699886e-01
-6.738704807705799e-02 -1.724654279837582e-01 1.255569755545911e-01
-4.151524554552015e-02 -2.908320592114497e-02 1.208823990220133e-01
1.740675169597668e-03 2.747845636952992e-02 3.685129890171014e-02
3.908131834108222e-03 8.333839680778268e-03 3.708696891048765e-02
-2.987855224437471e-02 -6.122367505536572e-02 1.046264239789705e-01
-1.021031895050396e-01 -6.242903793155816e-02 1.038818205265129e-01
-1.602214818607757e-02 3.012453407465152e-02 4.948670880739446e-02
-1.441883720970855e-02 1.068855038513595e-02 5.048043730704538e-02
-6.208967936339722e-02 -7.217636404789220e-02 1.008248368699886e-01
1.740675169597668e-03 2.747845636952992e-02 3.685129890171014e-02
2.801930181229336e-03 5.561302195790025e-03 5.553172131124428e-03
1.775328185365824e-03 3.580270125323366e-03 1.659821898081096e-03
3.908131834108222e-03 8.333839680778268e-03 3.708696891048765e-02
-1.602214818607757e-02 3.012453407465152e-02 4.948670880739446e-02
2.735078176921083e-03 9.280088280193508e-03 1.150965579606145e-02
-1.200934256336072e-03 3.548059373302416e-03 6.053296254450906e-03
-1.441883720970855e-02 1.068855038513595e-02 5.048043730704538e-02
2.801930181229336e-03 5.561302195790025e-03 5.553172131124428e-03
-1.166500182895584e-03 -2.526667753466945e-03 7.065134866436675e-04
-1.057418123173231e-03 -2.075601407040525e-03 -7.584540705354109e-04
1.775328185365824e-03 3.580270125323366e-03 1.659821898081096e-03
2.735078176921083e-03 9.280088280193508e-03 1.150965579606145e-02
-2.200899132483371e-03 -3.430130991218765e-03 -2.507607952489813e-04
-5.123379641259892e-04 -2.410102406795792e-03 -1.467799328215919e-03
-1.200934256336072e-03 3.548059373302416e-03 6.053296254450906e-03
-1.166500182895584e-03 -2.526667753466945e-03 7.065134866436675e-04
1.739316713082011e-04 5.834847912864470e-04 -4.318146041540430e-04
2.075858654165208e-04 3.898765786189568e-04 1.536072917534698e-04
-1.057418123173231e-03 -2.075601407040525e-03 -7.584540705354109e-04
-2.200899132483371e-03 -3.430130991218765e-03 -2.507607952489813e-04
2.925763022360750e-04 5.683701926673885e-04 -2.689694648358649e-04
2.473678603055117e-04 5.389210362761420e-04 2.645907648619312e-04
-5.123379641259892e-04 -2.410102406795792e-03 -1.467799328215919e-03
1.739316713082011e-04 5.834847912864470e-04 -4.318146041540430e-04
2.982649649237660e-05 -4.690568049307075e-05 2.515007380532203e-05
1.290507693143626e-05 3.131684694446408e-05 -1.088344182860272e-05
2.075858654165208e-04 3.898765786189568e-04 1.536072917534698e-04
2.925763022360750e-04 5.683701926673885e-04 -2.689694648358649e-04
1.204959656848979e-04 6.142677980379777e-05 6.763732711232936e-05
-4.558619917386319e-05 -4.162356166351942e-06 4.923336748514101e-06
2.473678603055117e-04 5.389210362761420e-04 2.645907648619312e-04
7.439538480803735e-01 1.467730072367548e+00 -6.531370970561571e-01
4.772222879457257e-01 9.409643974181775e-01 -2.542113959555904e-01
3.269002938284257e-01 6.741997432419037e-01 -6.354395704519651e-01
5.924684718453670e-01 1.156812348473290e+00 -1.060213233682461e+00
6.384364244710951e-01 1.338230852107529e+00 -8.625627422620608e-01
4.023875996326514e-01 8.042558067913336e-01 -4.504937296607228e-01
2.584080760637306e-01 5.185843858047573e-01 -8.549186484902371e-01
4.818049155189740e-01 1.004586873191275e+00 -1.296062905123606e+00
4.772222879457257e-01 9.409643974181775e-01 -2.542113959555904e-01
2.164815827088207e-01 4.338364862046629e-01 6.026003737364177e-02
1.175788651159487e-01 2.473006083356212e-01 -3.040044448829205e-01
3.269002938284257e-01 6.741997432419037e-01 -6.354395704519651e-01
4.023875996326514e-01 8.042558067913336e-01 -4.504937296607228e-01
1.648892958670704e-01 3.357171421053948e-01 -1.270278958279519e-01
3.714776533049622e-02 1.454469054039797e-01 -4.840685522487174e-01
2.584080760637306e-01 5.185843858047573e-01 -8.549186484902371e-01
2.164815827088207e-01 4.338364862046629e-01 6.026003737364177e-02
2.036630298609106e-02 3.433878668726894e-02 2.124747089849791e-01
-8.216302242351545e-02 -8.882079878807771e-02 -2.492030161729459e-02
1.175788651159487e-01 2.473006083356212e-01 -3.040044448829205e-01
1.648892958670704e-01 3.357171421053948e-01 -1.270278958279519e-01
2.189888812565515e-02 -3.920067782638440e-02 1.324020276340000e-01
-6.542334091726472e-02 -2.174545822934868e-01 -2.304730296338678e-01
3.714776533049622e-02 1.454469054039797e-01 -4.840685522487174e-01
2.036630298609106e-02 3.433878668726894e-02 2.124747089849791e-01
-4.524046042452950e-02 -1.036556322712335e-01 1.729037054367953e-01
-1.016911624155414e-01 -1.381751338001142e-01 8.361146194506758e-02
-8.216302242351545e-02 -8.882079878807771e-02 -2.492030161729459e-02
2.189888812565515e-02 -3.920067782638440e-02 1.324020276340000e-01
-6.738704807705799e-02 -1.724654279837582e-01 1.255569755545911e-01
-3.865546625729506e-02 -1.529816444401614e-01 6.408463168133043e-02
-6.542334091726472e-02 -2.174545822934868e-01 -2.304730296338678e-01
-4.524046042452950e-02 -1.036556322712335e-01 1.729037054367953e-01
-2.987855224437471e-02 -6.122367505536572e-02 1.046264239789705e-01
-2.961612413361853e-02 -8.534326470418127e-02 1.054759691348752e-01
-1.016911624155414e-01 -1.381751338001142e-01 8.361146194506758e-02
-6.738704807705799e-02 -1.724654279837582e-01 1.255569755545911e-01
-6.208967936339722e-02 -7.217636404789220e-02 1.008248368699886e-01
-4.241989860524800e-02 -8.465970414749881e-02 1.100507812648315e-01
-3.865546625729506e-02 -1.529816444401614e-01 6.408463168133043e-02
-2.987855224437471e-02 -6.122367505536572e-02 1.046264239789705e-01
3.908131834108222e-03 8.333839680778268e-03 3.708696891048765e-02
6.606067706043428e-03 -9.259087157332559e-03 5.226845940825155e-02
-2.961612413361853e-02 -8.534326470418127e-02 1.054759691348752e-01
-6.208967936339722e-02 -7.217636404789220e-02 1.008248368699886e-01
-1.441883720970855e-02 1.068855038513595e-02 5.048043730704538e-02
-1.393027483801114e-02 -7.255462661066545e-03 5.851318686331947e-02
-4.241989860524800e-02 -8.465970414749881e-02 1.100507812648315e-01
3.908131834108222e-03 8.333839680778268e-03 3.708696891048765e-02
1.775328185365824e-03 3.580270125323366e-03 1.659821898081096e-03
1.096649063692421e-03 -4.355721637334073e-04 5.803351891678832e-03
6.606067706043428e-03 -9.259087157332559e-03 5.226845940825155e-02
-1.441883720970855e-02 1.068855038513595e-02 5.048043730704538e-02
-1.200934256336072e-03 3.548059373302416e-03 6.053296254450906e-03
-4.525041770345950e-03 -2.636406617003666e-03 9.481867765564313e-03
-1.393027483801114e-02 -7.255462661066545e-03 5.851318686331947e-02