<?xml version="1.0" ?> 
<!-- 
# vtk DataFile Version 3.0
-->
<VTKFile type="UnstructuredGrid" version="0.1" compressor="vtkZLibDataCompressor" byte_order="LittleEndian">
  <UnstructuredGrid>
    <FieldData>
      <DataArray type="Float64" Name="TIME" NumberOfTuples="1" format="ascii">
1.000000000000000e-08 
      </DataArray>
    </FieldData>

    <Piece NumberOfPoints="320" NumberOfCells="40" >
      <Points>
        <DataArray type="Float64" NumberOfComponents="3" format="ascii">
-5.000000000000000e-01 -5.000000000000000e-01 0.000000000000000e+00
-5.000000000000000e-01 -5.000000000000000e-01 -5.000000000000000e-01
-5.000000000000000e-01 0.000000000000000e+00 -5.000000000000000e-01
-5.000000000000000e-01 0.000000000000000e+00 0.000000000000000e+00
0.000000000000000e+00 -5.000000000000000e-01 0.000000000000000e+00
0.000000000000000e+00 -5.000000000000000e-01 -5.000000000000000e-01
0.000000000000000e+00 0.000000000000000e+00 -5.000000000000000e-01
0.000000000000000e+00 0.000000000000000e+00 0.000000000000000e+00
-5.000000000000000e-01 -5.000000000000000e-01 -5.000000000000000e-01
-5.000000000000000e-01 -5.000000000000000e-01 -1.000000000000000e+00
-5.000000000000000e-01 0.000000000000000e+00 -1.000000000000000e+00
-5.000000000000000e-01 0.000000000000000e+00 -5.000000000000000e-01
0.000000000000000e+00 -5.000000000000000e-01 -5.000000000000000e-01
0.000000000000000e+00 -5.000000000000000e-01 -1.000000000000000e+00
0.000000000000000e+00 0.000000000000000e+00 -1.000000000000000e+00
0.000000000000000e+00 0.000000000000000e+00 -5.000000000000000e-01
-5.000000000000000e-01 -5.000000000000000e-01 -1.000000000000000e+00
-5.000000000000000e-01 -5.000000000000000e-01 -1.500000000000000e+00
-5.000000000000000e-01 0.000000000000000e+00 -1.500000000000000e+00
-5.000000000000000e-01 0.000000000000000e+00 -1.000000000000000e+00
0.000000000000000e+00 -5.000000000000000e-01 -1.000000000000000e+00
0.000000000000000e+00 -5.000000000000000e-01 -1.500000000000000e+00
0.000000000000000e+00 0.000000000000000e+00 -1.500000000000000e+00
0.000000000000000e+00 0.000000000000000e+00 -1.000000000000000e+00
-5.000000000000000e-01 -5.000000000000000e-01 -1.500000000000000e+00
-5.000000000000000e-01 -5.000000000000000e-01 -2.000000000000000e+00
-5.000000000000000e-01 0.000000000000000e+00 -2.000000000000000e+00
-5.000000000000000e-01 0.000000000000000e+00 -1.500000000000000e+00
0.000000000000000e+00 -5.000000000000000e-01 -1.500000000000000e+00
0.000000000000000e+00 -5.000000000000000e-01 -2.000000000000000e+00
0.000000000000000e+00 0.000000000000000e+00 -2.000000000000000e+00
0.000000000000000e+00 0.000000000000000e+00 -1.500000000000000e+00
-5.000000000000000e-01 -5.000000000000000e-01 -2.000000000000000e+00
-5.000000000000000e-01 -5.000000000000000e-01 -2.500000000000000e+00
-5.000000000000000e-01 0.000000000000000e+00 -2.500000000000000e+00
-5.000000000000000e-01 0.000000000000000e+00 -2.000000000000000e+00
0.000000000000000e+00 -5.000000000000000e-01 -2.000000000000000e+00
0.000000000000000e+00 -5.000000000000000e-01 -2.500000000000000e+00
0.000000000000000e+00 0.000000000000000e+00 -2.500000000000000e+00
0.000000000000000e+00 0.000000000000000e+00 -2.000000000000000e+00
-5.000000000000000e-01 -5.000000000000000e-01 -2.500000000000000e+00
-5.000000000000000e-01 -5.000000000000000e-01 -3.000000000000000e+00
-5.000000000000000e-01 0.000000000000000e+00 -3.000000000000000e+00
-5.000000000000000e-01 0.000000000000000e+00 -2.500000000000000e+00
0.000000000000000e+00 -5.000000000000000e-01 -2.500000000000000e+00
0.000000000000000e+00 -5.000000000000000e-01 -3.000000000000000e+00
0.000000000000000e+00 0.000000000000000e+00 -3.000000000000000e+00
0.000000000000000e+00 0.000000000000000e+00 -2.500000000000000e+00
-5.000000000000000e-01 -5.000000000000000e-01 -3.000000000000000e+00
-5.000000000000000e-01 -5.000000000000000e-01 -3.500000000000000e+00
-5.000000000000000e-01 0.000000000000000e+00 -3.500000000000000e+00
-5.000000000000000e-01 0.000000000000000e+00 -3.000000000000000e+00
0.000000000000000e+00 -5.000000000000000e-01 -3.000000000000000e+00
0.000000000000000e+00 -5.000000000000000e-01 -3.500000000000000e+00
0.000000000000000e+00 0.000000000000000e+00 -3.500000000000000e+00
0.000000000000000e+00 0.000000000000000e+00 -3.000000000000000e+00
-5.000000000000000e-01 -5.000000000000000e-01 -3.500000000000000e+00
-5.000000000000000e-01 -5.000000000000000e-01 -4.000000000000000e+00
-5.000000000000000e-01 0.000000000000000e+00 -4.000000000000000e+00
-5.000000000000000e-01 0.000000000000000e+00 -3.500000000000000e+00
0.000000000000000e+00 -5.000000000000000e-01 -3.500000000000000e+00
0.000000000000000e+00 -5.000000000000000e-01 -4.000000000000000e+00
0.000000000000000e+00 0.000000000000000e+00 -4.000000000000000e+00
0.000000000000000e+00 0.000000000000000e+00 -3.500000000000000e+00
-5.000000000000000e-01 -5.000000000000000e-01 -4.000000000000000e+00
-5.000000000000000e-01 -5.000000000000000e-01 -4.500000000000000e+00
-5.000000000000000e-01 0.000000000000000e+00 -4.500000000000000e+00
-5.000000000000000e-01 0.000000000000000e+00 -4.000000000000000e+00
0.000000000000000e+00 -5.000000000000000e-01 -4.000000000000000e+00
0.000000000000000e+00 -5.000000000000000e-01 -4.500000000000000e+00
0.000000000000000e+00 0.000000000000000e+00 -4.500000000000000e+00
0.000000000000000e+00 0.000000000000000e+00 -4.000000000000000e+00
-5.000000000000000e-01 -5.000000000000000e-01 -4.500000000000000e+00
-5.000000000000000e-01 -5.000000000000000e-01 -5.000000000000000e+00
-5.000000000000000e-01 0.000000000000000e+00 -5.000000000000000e+00
-5.000000000000000e-01 0.000000000000000e+00 -4.500000000000000e+00
0.000000000000000e+00 -5.000000000000000e-01 -4.500000000000000e+00
0.000000000000000e+00 -5.000000000000000e-01 -5.000000000000000e+00
0.000000000000000e+00 0.000000000000000e+00 -5.000000000000000e+00
0.000000000000000e+00 0.000000000000000e+00 -4.500000000000000e+00
-5.000000000000000e-01 0.000000000000000e+00 0.000000000000000e+00
-5.000000000000000e-01 0.000000000000000e+00 -5.000000000000000e-01
-5.000000000000000e-01 5.000000000000000e-01 -5.000000000000000e-01
-5.000000000000000e-01 5.000000000000000e-01 0.000000000000000e+00
0.000000000000000e+00 0.000000000000000e+00 0.000000000000000e+00
0.000000000000000e+00 0.000000000000000e+00 -5.000000000000000e-01
0.000000000000000e+00 5.000000000000000e-01 -5.000000000000000e-01
0.000000000000000e+00 5.000000000000000e-01 0.000000000000000e+00
-5.000000000000000e-01 0.000000000000000e+00 -5.000000000000000e-01
-5.000000000000000e-01 0.000000000000000e+00 -1.000000000000000e+00
-5.000000000000000e-01 5.000000000000000e-01 -1.000000000000000e+00
-5.000000000000000e-01 5.000000000000000e-01 -5.000000000000000e-01
0.000000000000000e+00 0.000000000000000e+00 -5.000000000000000e-01
0.000000000000000e+00 0.000000000000000e+00 -1.000000000000000e+00
0.000000000000000e+00 5.000000000000000e-01 -1.000000000000000e+00
0.000000000000000e+00 5.000000000000000e-01 -5.000000000000000e-01
-5.000000000000000e-01 0.000000000000000e+00 -1.000000000000000e+00
-5.000000000000000e-01 0.000000000000000e+00 -1.500000000000000e+00
-5.000000000000000e-01 5.000000000000000e-01 -1.500000000000000e+00
-5.000000000000000e-01 5.000000000000000e-01 -1.000000000000000e+00
0.000000000000000e+00 0.000000000000000e+00 -1.000000000000000e+00
0.000000000000000e+00 0.000000000000000e+00 -1.500000000000000e+00
0.000000000000000e+00 5.000000000000000e-01 -1.500000000000000e+00
0.000000000000000e+00 5.000000000000000e-01 -1.000000000000000e+00
-5.000000000000000e-01 0.000000000000000e+00 -1.500000000000000e+00
-5.000000000000000e-01 0.000000000000000e+00 -2.000000000000000e+00
-5.000000000000000e-01 5.000000000000000e-01 -2.000000000000000e+00
-5.000000000000000e-01 5.000000000000000e-01 -1.500000000000000e+00
0.000000000000000e+00 0.000000000000000e+00 -1.500000000000000e+00
0.000000000000000e+00 0.000000000000000e+00 -2.000000000000000e+00
0.000000000000000e+00 5.000000000000000e-01 -2.000000000000000e+00
0.000000000000000e+00 5.000000000000000e-01 -1.500000000000000e+00
-5.000000000000000e-01 0.000000000000000e+00 -2.000000000000000e+00
-5.000000000000000e-01 0.000000000000000e+00 -2.500000000000000e+00
-5.000000000000000e-01 5.000000000000000e-01 -2.500000000000000e+00
-5.000000000000000e-01 5.000000000000000e-01 -2.000000000000000e+00
0.000000000000000e+00 0.000000000000000e+00 -2.000000000000000e+00
0.000000000000000e+00 0.000000000000000e+00 -2.500000000000000e+00
0.000000000000000e+00 5.000000000000000e-01 -2.500000000000000e+00
0.000000000000000e+00 5.000000000000000e-01 -2.000000000000000e+00
-5.000000000000000e-01 0.000000000000000e+00 -2.500000000000000e+00
-5.000000000000000e-01 0.000000000000000e+00 -3.000000000000000e+00
-5.000000000000000e-01 5.000000000000000e-01 -3.000000000000000e+00
-5.000000000000000e-01 5.000000000000000e-01 -2.500000000000000e+00
0.000000000000000e+00 0.000000000000000e+00 -2.500000000000000e+00
0.000000000000000e+00 0.000000000000000e+00 -3.000000000000000e+00
0.000000000000000e+00 5.000000000000000e-01 -3.000000000000000e+00
0.000000000000000e+00 5.000000000000000e-01 -2.500000000000000e+00
-5.000000000000000e-01 0.000000000000000e+00 -3.000000000000000e+00
-5.000000000000000e-01 0.000000000000000e+00 -3.500000000000000e+00
-5.000000000000000e-01 5.000000000000000e-01 -3.500000000000000e+00
-5.000000000000000e-01 5.000000000000000e-01 -3.000000000000000e+00
0.000000000000000e+00 0.000000000000000e+00 -3.000000000000000e+00
0.000000000000000e+00 0.000000000000000e+00 -3.500000000000000e+00
0.000000000000000e+00 5.000000000000000e-01 -3.500000000000000e+00
0.000000000000000e+00 5.000000000000000e-01 -3.000000000000000e+00
-5.000000000000000e-01 0.000000000000000e+00 -3.500000000000000e+00
-5.000000000000000e-01 0.000000000000000e+00 -4.000000000000000e+00
-5.000000000000000e-01 5.000000000000000e-01 -4.000000000000000e+00
-5.000000000000000e-01 5.000000000000000e-01 -3.500000000000000e+00
[...]
  <PointData>
        <DataArray type="Float64" Name="displacement" NumberOfComponents="3" format="ascii">
4.237079574205914e-09 6.440369225387594e-09 1.192331436280428e-09
-8.277373394748476e-10 -1.347435725776536e-09 -3.461872170828520e-10
-3.847496127586825e-10 6.017694065886877e-10 -1.445536780252214e-10
1.976777028888889e-09 -2.507384062149175e-09 8.046971735898019e-10
-1.253692021221474e-09 3.953554011672682e-09 1.609394340425783e-09
3.008846713436833e-10 -7.694992109548985e-10 -2.891073783803867e-10
2.222276297243480e-11 4.444555190543947e-11 2.161200387344390e-17
-1.165566964679828e-10 -2.331134015498652e-10 7.072631618819430e-19
-8.277373394748476e-10 -1.347435725776536e-09 -3.461872170828520e-10
1.637458105163437e-10 2.830055296849585e-10 9.090189783458028e-11
7.500678297131029e-11 -1.387046585729373e-10 2.473564919458517e-11
-3.847496127586825e-10 6.017694065886877e-10 -1.445536780252214e-10
3.008846713436833e-10 -7.694992109548985e-10 -2.891073783803867e-10
-6.935228713090578e-11 1.500135453346332e-10 4.947141586352781e-11
-4.305104507072573e-12 -8.610263696406243e-12 -2.659436039551245e-17
2.222276297243480e-11 4.444555190543947e-11 2.161200387344390e-17
1.637458105163437e-10 2.830055296849585e-10 9.090189783458028e-11
-3.292384315985658e-11 -5.966364844369696e-11 -2.240342905043352e-11
-1.466665140323123e-11 3.107377706718451e-11 -4.105597523906899e-12
7.500678297131029e-11 -1.387046585729373e-10 2.473564919458517e-11
-6.935228713090578e-11 1.500135453346332e-10 4.947141586352781e-11
1.553686133520929e-11 -2.933329044352222e-11 -8.211205210985929e-12
9.249770891596734e-13 1.849984425770402e-12 -1.079100892208988e-17
-4.305104507072573e-12 -8.610263696406243e-12 -2.659436039551245e-17
-3.292384315985658e-11 -5.966364844369696e-11 -2.240342905043352e-11
6.731805571494573e-12 1.261939437463377e-11 5.279791052505916e-12
2.878547217350685e-12 -6.816560937585198e-12 6.750909555349343e-13
-1.466665140323123e-11 3.107377706718451e-11 -4.105597523906899e-12
1.553686133520929e-11 -2.933329044352222e-11 -8.211205210985929e-12
-3.408264707227559e-12 5.757012942747159e-12 1.350199490259411e-12
-2.225776813806239e-13 -4.451726606575536e-13 -1.972184310414493e-17
9.249770891596734e-13 1.849984425770402e-12 -1.079100892208988e-17
6.731805571494573e-12 1.261939437463377e-11 5.279791052505916e-12
-1.396963190464942e-12 -2.676045214970331e-12 -1.203401698469890e-12
-5.670187334144088e-13 1.471899058938085e-12 -1.127746604712705e-13
2.878547217350685e-12 -6.816560937585198e-12 6.750909555349343e-13
-3.408264707227559e-12 5.757012942747159e-12 1.350199490259411e-12
7.359617228449270e-13 -1.133994978439036e-12 -2.256699458489028e-13
5.692542452530494e-14 1.138939686886703e-13 6.542741293657869e-17
-2.225776813806239e-13 -4.451726606575536e-13 -1.972184310414493e-17
-1.396963190464942e-12 -2.676045214970331e-12 -1.203401698469890e-12
2.931814779822868e-13 5.685899524265644e-13 2.673587571039409e-13
1.120046929355053e-13 -3.141199107667509e-13 1.969051200957382e-14
-5.670187334144088e-13 1.471899058938085e-12 -1.127746604712705e-13
7.359617228449270e-13 -1.133994978439036e-12 -2.256699458489028e-13
-1.570876489986363e-13 2.240196878434171e-13 3.938597158905929e-14
-1.468083308717758e-14 -2.936623207642283e-14 -3.645154112325098e-17
5.692542452530494e-14 1.138939686886703e-13 6.542741293657869e-17
2.931814779822868e-13 5.685899524265644e-13 2.673587571039409e-13
-6.203866281807853e-14 -1.209673839647256e-13 -5.828537726260529e-14
-2.210269665887535e-14 6.651558650373283e-14 -3.685541391317523e-15
1.120046929355053e-13 -3.141199107667509e-13 1.969051200957382e-14
-1.570876489986363e-13 2.240196878434171e-13 3.938597158905929e-14
3.332093522790780e-14 -4.432901654988902e-14 -7.347358488393026e-15
3.776835292564929e-15 7.420309512211219e-15 1.156388124738758e-17
-1.468083308717758e-14 -2.936623207642283e-14 -3.645154112325098e-17
-6.203866281807853e-14 -1.209673839647256e-13 -5.828537726260529e-14
1.312360506128952e-14 2.581522742948792e-14 1.250141487636621e-14
4.320372600461133e-15 -1.409748119286008e-14 5.674398391509098e-16
-2.210269665887535e-14 6.651558650373283e-14 -3.685541391317523e-15
3.332093522790780e-14 -4.432901654988902e-14 -7.347358488393026e-15
-7.127134128077818e-15 8.775488246809554e-15 1.481039061895861e-15
-9.586079711108426e-16 -1.894946786626579e-15 -6.947217555260254e-17
3.776835292564929e-15 7.420309512211219e-15 1.156388124738758e-17
1.312360506128952e-14 2.581522742948792e-14 1.250141487636621e-14
-2.866322306057895e-15 -5.710690327585818e-15 -2.531596190498670e-15
-8.827456608277927e-16 3.105377937149346e-15 -6.033252600852468e-19
4.320372600461133e-15 -1.409748119286008e-14 5.674398391509098e-16
-7.127134128077818e-15 8.775488246809554e-15 1.481039061895861e-15
1.617888439304392e-15 -1.756516572824716e-15 -2.575250758917676e-16
2.206744147490429e-16 4.709219642138063e-16 4.974171730139330e-17
-9.586079711108426e-16 -1.894946786626579e-15 -6.947217555260254e-17
-2.866322306057895e-15 -5.710690327585818e-15 -2.531596190498670e-15
1.110952546508880e-15 2.219507636472252e-15 6.361519671667747e-16
3.557267089039411e-16 -1.197883625516415e-15 6.594142071792202e-17
-8.827456608277927e-16 3.105377937149346e-15 -6.033252600852468e-19
1.617888439304392e-15 -1.756516572824716e-15 -2.575250758917676e-16
-6.542554280052363e-16 6.764844452025287e-16 -1.216946967162003e-17
-3.201004341982056e-17 -2.010587992657654e-16 -1.280599989695671e-17
2.206744147490429e-16 4.709219642138063e-16 4.974171730139330e-17
1.976777028888889e-09 -2.507384062149175e-09 8.046971735898019e-10
-3.847496127586825e-10 6.017694065886877e-10 -1.445536780252214e-10
-4.170186942865504e-10 -1.142076399631736e-09 1.153957377193054e-10
1.525359652592747e-09 5.084509260799254e-09 -3.974438109270097e-10
-1.165566964679828e-10 -2.331134015498652e-10 7.072631618819430e-19
2.222276297243480e-11 4.444555190543947e-11 2.161200387344390e-17
3.008846895296296e-10 -7.694992219881534e-10 2.891073524949318e-10
-1.253692025513436e-09 3.953553997905036e-09 -1.609394335600113e-09
-3.847496127586825e-10 6.017694065886877e-10 -1.445536780252214e-10
7.500678297131029e-11 -1.387046585729373e-10 2.473564919458517e-11
1.044309769946742e-10 2.533480511238034e-10 -3.030067521092365e-11
-4.170186942865504e-10 -1.142076399631736e-09 1.153957377193054e-10
2.222276297243480e-11 4.444555190543947e-11 2.161200387344390e-17
-4.305104507072573e-12 -8.610263696406243e-12 -2.659436039551245e-17
-6.935232288442135e-11 1.500135399574575e-10 -4.947140634681737e-11
3.008846895296296e-10 -7.694992219881534e-10 2.891073524949318e-10
7.500678297131029e-11 -1.387046585729373e-10 2.473564919458517e-11
-1.466665140323123e-11 3.107377706718451e-11 -4.105597523906899e-12
-2.467851737884169e-11 -5.554103240153931e-11 7.467813262982497e-12
1.044309769946742e-10 2.533480511238034e-10 -3.030067521092365e-11
-4.305104507072573e-12 -8.610263696406243e-12 -2.659436039551245e-17
9.249770891596734e-13 1.849984425770402e-12 -1.079100892208988e-17
1.553687169349211e-11 -2.933331152874314e-11 8.211179412150014e-12
-6.935232288442135e-11 1.500135399574575e-10 -4.947140634681737e-11
-1.466665140323123e-11 3.107377706718451e-11 -4.105597523906899e-12
2.878547217350685e-12 -6.816560937585198e-12 6.750909555349343e-13
5.606168202555988e-12 1.205644583321905e-11 -1.760004884393299e-12
-2.467851737884169e-11 -5.554103240153931e-11 7.467813262982497e-12
9.249770891596734e-13 1.849984425770402e-12 -1.079100892208988e-17
-2.225776813806239e-13 -4.451726606575536e-13 -1.972184310414493e-17
-3.408226681035943e-12 5.756946919953757e-12 -1.350221095328911e-12
1.553687169349211e-11 -2.933331152874314e-11 8.211179412150014e-12
2.878547217350685e-12 -6.816560937585198e-12 6.750909555349343e-13
-5.670187334144088e-13 1.471899058938085e-12 -1.127746604712705e-13
-1.239863286763344e-12 -2.597387838110444e-12 4.012285960533376e-13
5.606168202555988e-12 1.205644583321905e-11 -1.760004884393299e-12
-2.225776813806239e-13 -4.451726606575536e-13 -1.972184310414493e-17
5.692542452530494e-14 1.138939686886703e-13 6.542741293657869e-17
7.358968860438444e-13 -1.133947361604402e-12 2.258190742245495e-13
-3.408226681035943e-12 5.756946919953757e-12 -1.350221095328911e-12
-5.670187334144088e-13 1.471899058938085e-12 -1.127746604712705e-13
1.120046929355053e-13 -3.141199107667509e-13 1.969051200957382e-14
2.693604195077241e-13 5.566273424364460e-13 -8.910424268477314e-14
-1.239863286763344e-12 -2.597387838110444e-12 4.012285960533376e-13
5.692542452530494e-14 1.138939686886703e-13 6.542741293657869e-17
-1.468083308717758e-14 -2.936623207642283e-14 -3.645154112325098e-17
-1.570820281059169e-13 2.240559715923424e-13 -3.946272803757643e-14
7.358968860438444e-13 -1.133947361604402e-12 2.258190742245495e-13
1.120046929355053e-13 -3.141199107667509e-13 1.969051200957382e-14
-2.210269665887535e-14 6.651558650373283e-14 -3.685541391317523e-15
-5.784373277649031e-14 -1.188595652027342e-13 1.942607169127515e-14
2.693604195077241e-13 5.566273424364460e-13 -8.910424268477314e-14
-1.468083308717758e-14 -2.936623207642283e-14 -3.645154112325098e-17
3.776835292564929e-15 7.420309512211219e-15 1.156388124738758e-17
3.331998928130082e-14 -4.430162854513986e-14 7.351753028964592e-15
-1.570820281059169e-13 2.240559715923424e-13 -3.946272803757643e-14
-2.210269665887535e-14 6.651558650373283e-14 -3.685541391317523e-15
4.320372600461133e-15 -1.409748119286008e-14 5.674398391509098e-16
1.235500213793493e-14 2.533504291316151e-14 -4.411746511336499e-15
-5.784373277649031e-14 -1.188595652027342e-13 1.942607169127515e-14
3.776835292564929e-15 7.420309512211219e-15 1.156388124738758e-17
-9.586079711108426e-16 -1.894946786626579e-15 -6.947217555260254e-17
-7.038695970359193e-15 8.741990244124213e-15 -1.592770118941397e-15
3.331998928130082e-14 -4.430162854513986e-14 7.351753028964592e-15
4.320372600461133e-15 -1.409748119286008e-14 5.674398391509098e-16
-8.827456608277927e-16 3.105377937149346e-15 -6.033252600852468e-19
-2.780491256930822e-15 -5.582887032147552e-15 1.089195292266974e-15
1.235500213793493e-14 2.533504291316151e-14 -4.411746511336499e-15
-9.586079711108426e-16 -1.894946786626579e-15 -6.947217555260254e-17
2.206744147490429e-16 4.709219642138063e-16 4.974171730139330e-17
1.522286141508882e-15 -1.756842835837489e-15 4.024146943759822e-16
-7.038695970359193e-15 8.741990244124213e-15 -1.592770118941397e-15
-8.827456608277927e-16 3.105377937149346e-15 -6.033252600852468e-19
3.557267089039411e-16 -1.197883625516415e-15 6.594142071792202e-17
1.201762302290752e-15 2.266782306050965e-15 -2.383188775078459e-16
-2.780491256930822e-15 -5.582887032147552e-15 1.089195292266974e-15
2.206744147490429e-16 4.709219642138063e-16 4.974171730139330e-17
-3.201004341982056e-17 -2.010587992657654e-16 -1.280599989695671e-17
-5.445725294598236e-16 6.498680498742858e-16 -1.669481935109531e-17
1.522286141508882e-15 -1.756842835837489e-15 4.024146943759822e-16
-1.253692021221474e-09 3.953554011672682e-09 1.609394340425783e-09
3.008846713436833e-10 -7.694992109548985e-10 -2.891073783803867e-10
2.222276297243480e-11 4.444555190543947e-11 2.161200387344390e-17
-1.165566964679828e-10 -2.331134015498652e-10 7.072631618819430e-19
1.525359660589294e-09 5.084509302839992e-09 3.974438100138491e-10
-4.170186970135858e-10 -1.142076394386867e-09 -1.153957323111479e-10
-3.847496166676399e-10 6.017693962409176e-10 1.445537210281988e-10
1.976776974058944e-09 -2.507384072614952e-09 -8.046971747829362e-10
3.008846713436833e-10 -7.694992109548985e-10 -2.891073783803867e-10
-6.935228713090578e-11 1.500135453346332e-10 4.947141586352781e-11
-4.305104507072573e-12 -8.610263696406243e-12 -2.659436039551245e-17
2.222276297243480e-11 4.444555190543947e-11 2.161200387344390e-17
-4.170186970135858e-10 -1.142076394386867e-09 -1.153957323111479e-10
1.044310075187646e-10 2.533480307655728e-10 3.030070274843284e-11
7.500680810355557e-11 -1.387046089022366e-10 -2.473569265080271e-11
-3.847496166676399e-10 6.017693962409176e-10 1.445537210281988e-10
-6.935228713090578e-11 1.500135453346332e-10 4.947141586352781e-11
1.553686133520929e-11 -2.933329044352222e-11 -8.211205210985929e-12
9.249770891596734e-13 1.849984425770402e-12 -1.079100892208988e-17
-4.305104507072573e-12 -8.610263696406243e-12 -2.659436039551245e-17
1.044310075187646e-10 2.533480307655728e-10 3.030070274843284e-11
-2.467858349961899e-11 -5.554096821106151e-11 -7.467839885344198e-12
-1.466669110470399e-11 3.107372374036076e-11 4.105557680616831e-12
7.500680810355557e-11 -1.387046089022366e-10 -2.473569265080271e-11
1.553686133520929e-11 -2.933329044352222e-11 -8.211205210985929e-12
-3.408264707227559e-12 5.757012942747159e-12 1.350199490259411e-12
-2.225776813806239e-13 -4.451726606575536e-13 -1.972184310414493e-17
9.249770891596734e-13 1.849984425770402e-12 -1.079100892208988e-17
-2.467858349961899e-11 -5.554096821106151e-11 -7.467839885344198e-12
5.606101898618670e-12 1.205651609604385e-11 1.759861820390377e-12
2.878472439377684e-12 -6.816560467309230e-12 -6.751164842983924e-13
-1.466669110470399e-11 3.107372374036076e-11 4.105557680616831e-12
-3.408264707227559e-12 5.757012942747159e-12 1.350199490259411e-12
7.359617228449270e-13 -1.133994978439036e-12 -2.256699458489028e-13
5.692542452530494e-14 1.138939686886703e-13 6.542741293657869e-17
-2.225776813806239e-13 -4.451726606575536e-13 -1.972184310414493e-17
5.606101898618670e-12 1.205651609604385e-11 1.759861820390377e-12
-1.239720928019059e-12 -2.597432052754872e-12 -4.010775951583900e-13
-5.669883310550974e-13 1.471906861341793e-12 1.129061613488989e-13
2.878472439377684e-12 -6.816560467309230e-12 -6.751164842983924e-13
7.359617228449270e-13 -1.133994978439036e-12 -2.256699458489028e-13
-1.570876489986363e-13 2.240196878434171e-13 3.938597158905929e-14
-1.468083308717758e-14 -2.936623207642283e-14 -3.645154112325098e-17
5.692542452530494e-14 1.138939686886703e-13 6.542741293657869e-17
-1.239720928019059e-12 -2.597432052754872e-12 -4.010775951583900e-13
2.693165070544484e-13 5.566023833444961e-13 8.917767733026998e-14
1.120207971867098e-13 -3.141306912911868e-13 -1.975252260608339e-14
-5.669883310550974e-13 1.471906861341793e-12 1.129061613488989e-13
-1.570876489986363e-13 2.240196878434171e-13 3.938597158905929e-14
3.332093522790780e-14 -4.432901654988902e-14 -7.347358488393026e-15
3.776835292564929e-15 7.420309512211219e-15 1.156388124738758e-17
-1.468083308717758e-14 -2.936623207642283e-14 -3.645154112325098e-17
2.693165070544484e-13 5.566023833444961e-13 8.917767733026998e-14
-5.777225117727965e-14 -1.188757496322107e-13 -1.949750470699129e-14
-2.206988501633795e-14 6.648723651402699e-14 3.699320067501313e-15
1.120207971867098e-13 -3.141306912911868e-13 -1.975252260608339e-14
3.332093522790780e-14 -4.432901654988902e-14 -7.347358488393026e-15
-7.127134128077818e-15 8.775488246809554e-15 1.481039061895861e-15
-9.586079711108426e-16 -1.894946786626579e-15 -6.947217555260254e-17
3.776835292564929e-15 7.420309512211219e-15 1.156388124738758e-17
-5.777225117727965e-14 -1.188757496322107e-13 -1.949750470699129e-14
1.233355245675547e-14 2.538057639615177e-14 4.218223691574955e-15
4.314649486656688e-15 -1.409690742989327e-14 -7.267439934830736e-16
-2.206988501633795e-14 6.648723651402699e-14 3.699320067501313e-15
-7.127134128077818e-15 8.775488246809554e-15 1.481039061895861e-15
1.617888439304392e-15 -1.756516572824716e-15 -2.575250758917676e-16
2.206744147490429e-16 4.709219642138063e-16 4.974171730139330e-17
-9.586079711108426e-16 -1.894946786626579e-15 -6.947217555260254e-17
1.233355245675547e-14 2.538057639615177e-14 4.218223691574955e-15
-2.746612318922084e-15 -5.548184887626384e-15 -8.534927769420580e-16
-1.037322316374633e-15 3.098245706849962e-15 1.153972859705007e-16
4.314649486656688e-15 -1.409690742989327e-14 -7.267439934830736e-16
1.617888439304392e-15 -1.756516572824716e-15 -2.575250758917676e-16
-6.542554280052363e-16 6.764844452025287e-16 -1.216946967162003e-17
-3.201004341982056e-17 -2.010587992657654e-16 -1.280599989695671e-17
2.206744147490429e-16 4.709219642138063e-16 4.974171730139330e-17
-2.746612318922084e-15 -5.548184887626384e-15 -8.534927769420580e-16
1.197820208281895e-15 2.270757505123360e-15 2.243513133611218e-16
4.826891389309329e-16 -1.207698873777082e-15 -5.400289998692924e-17
-1.037322316374633e-15 3.098245706849962e-15 1.153972859705007e-16
-1.165566964679828e-10 -2.331134015498652e-10 7.072631618819430e-19
2.222276297243480e-11 4.444555190543947e-11 2.161200387344390e-17
3.008846895296296e-10 -7.694992219881534e-10 2.891073524949318e-10
-1.253692025513436e-09 3.953553997905036e-09 -1.609394335600113e-09
1.976776974058944e-09 -2.507384072614952e-09 -8.046971747829362e-10
-3.847496166676399e-10 6.017693962409176e-10 1.445537210281988e-10
-8.277373709878252e-10 -1.347435729180622e-09 3.461871750799413e-10
4.237079589073164e-09 6.440369214746436e-09 -1.192331431028059e-09
2.222276297243480e-11 4.444555190543947e-11 2.161200387344390e-17
-4.305104507072573e-12 -8.610263696406243e-12 -2.659436039551245e-17
-6.935232288442135e-11 1.500135399574575e-10 -4.947140634681737e-11
3.008846895296296e-10 -7.694992219881534e-10 2.891073524949318e-10
-3.847496166676399e-10 6.017693962409176e-10 1.445537210281988e-10
7.500680810355557e-11 -1.387046089022366e-10 -2.473569265080271e-11
1.637458320756555e-10 2.830054813701027e-10 -9.090193825593376e-11
-8.277373709878252e-10 -1.347435729180622e-09 3.461871750799413e-10
-4.305104507072573e-12 -8.610263696406243e-12 -2.659436039551245e-17
9.249770891596734e-13 1.849984425770402e-12 -1.079100892208988e-17
1.553687169349211e-11 -2.933331152874314e-11 8.211179412150014e-12
-6.935232288442135e-11 1.500135399574575e-10 -4.947140634681737e-11
7.500680810355557e-11 -1.387046089022366e-10 -2.473569265080271e-11
-1.466669110470399e-11 3.107372374036076e-11 4.105557680616831e-12
-3.292388116313316e-11 -5.966365884005725e-11 2.240339153811355e-11
1.637458320756555e-10 2.830054813701027e-10 -9.090193825593376e-11
9.249770891596734e-13 1.849984425770402e-12 -1.079100892208988e-17
-2.225776813806239e-13 -4.451726606575536e-13 -1.972184310414493e-17
-3.408226681035943e-12 5.756946919953757e-12 -1.350221095328911e-12
1.553687169349211e-11 -2.933331152874314e-11 8.211179412150014e-12
-1.466669110470399e-11 3.107372374036076e-11 4.105557680616831e-12
2.878472439377684e-12 -6.816560467309230e-12 -6.751164842983924e-13
6.731829801069058e-12 1.261929938524169e-11 -5.279653126095048e-12
-3.292388116313316e-11 -5.966365884005725e-11 2.240339153811355e-11
-2.225776813806239e-13 -4.451726606575536e-13 -1.972184310414493e-17
5.692542452530494e-14 1.138939686886703e-13 6.542741293657869e-17
7.358968860438444e-13 -1.133947361604402e-12 2.258190742245495e-13
-3.408226681035943e-12 5.756946919953757e-12 -1.350221095328911e-12
2.878472439377684e-12 -6.816560467309230e-12 -6.751164842983924e-13
-5.669883310550974e-13 1.471906861341793e-12 1.129061613488989e-13
-1.396988197038854e-12 -2.675990946271359e-12 1.203565050229173e-12
6.731829801069058e-12 1.261929938524169e-11 -5.279653126095048e-12
5.692542452530494e-14 1.138939686886703e-13 6.542741293657869e-17
-1.468083308717758e-14 -2.936623207642283e-14 -3.645154112325098e-17
-1.570820281059169e-13 2.240559715923424e-13 -3.946272803757643e-14
7.358968860438444e-13 -1.133947361604402e-12 2.258190742245495e-13
-5.669883310550974e-13 1.471906861341793e-12 1.129061613488989e-13
1.120207971867098e-13 -3.141306912911868e-13 -1.975252260608339e-14
2.932334467558067e-13 5.686469339125313e-13 -2.675979240731285e-13
-1.396988197038854e-12 -2.675990946271359e-12 1.203565050229173e-12
-1.468083308717758e-14 -2.936623207642283e-14 -3.645154112325098e-17
3.776835292564929e-15 7.420309512211219e-15 1.156388124738758e-17
3.331998928130082e-14 -4.430162854513986e-14 7.351753028964592e-15
-1.570820281059169e-13 2.240559715923424e-13 -3.946272803757643e-14
1.120207971867098e-13 -3.141306912911868e-13 -1.975252260608339e-14
-2.206988501633795e-14 6.648723651402699e-14 3.699320067501313e-15