<?xml version="1.0" ?> 
<!-- 
# vtk DataFile Version 3.0
-->
<VTKFile type="UnstructuredGrid" version="0.1" compressor="vtkZLibDataCompressor" byte_order="LittleEndian">
  <UnstructuredGrid>
    <FieldData>
      <DataArray type="Float64" Name="TIME" NumberOfTuples="1" format="ascii">
1.000000000000000e-08 
      </DataArray>
    </FieldData>

    <Piece NumberOfPoints="320" NumberOfCells="40" >
      <Points>
        <DataArray type="Float64" NumberOfComponents="3" format="ascii">
-5.000000000000000e-01 -5.000000000000000e-01 5.000000000000000e+00
-5.000000000000000e-01 -5.000000000000000e-01 4.500000000000000e+00
-5.000000000000000e-01 0.000000000000000e+00 4.500000000000000e+00
-5.000000000000000e-01 0.000000000000000e+00 5.000000000000000e+00
0.000000000000000e+00 -5.000000000000000e-01 5.000000000000000e+00
0.000000000000000e+00 -5.000000000000000e-01 4.500000000000000e+00
0.000000000000000e+00 0.000000000000000e+00 4.500000000000000e+00
0.000000000000000e+00 0.000000000000000e+00 5.000000000000000e+00
-5.000000000000000e-01 -5.000000000000000e-01 4.500000000000000e+00
-5.000000000000000e-01 -5.000000000000000e-01 4.000000000000000e+00
-5.000000000000000e-01 0.000000000000000e+00 4.000000000000000e+00
-5.000000000000000e-01 0.000000000000000e+00 4.500000000000000e+00
0.000000000000000e+00 -5.000000000000000e-01 4.500000000000000e+00
0.000000000000000e+00 -5.000000000000000e-01 4.000000000000000e+00
0.000000000000000e+00 0.000000000000000e+00 4.000000000000000e+00
0.000000000000000e+00 0.000000000000000e+00 4.500000000000000e+00
-5.000000000000000e-01 -5.000000000000000e-01 4.000000000000000e+00
-5.000000000000000e-01 -5.000000000000000e-01 3.500000000000000e+00
-5.000000000000000e-01 0.000000000000000e+00 3.500000000000000e+00
-5.000000000000000e-01 0.000000000000000e+00 4.000000000000000e+00
0.000000000000000e+00 -5.000000000000000e-01 4.000000000000000e+00
0.000000000000000e+00 -5.000000000000000e-01 3.500000000000000e+00
0.000000000000000e+00 0.000000000000000e+00 3.500000000000000e+00
0.000000000000000e+00 0.000000000000000e+00 4.000000000000000e+00
-5.000000000000000e-01 -5.000000000000000e-01 3.500000000000000e+00
-5.000000000000000e-01 -5.000000000000000e-01 3.000000000000000e+00
-5.000000000000000e-01 0.000000000000000e+00 3.000000000000000e+00
-5.000000000000000e-01 0.000000000000000e+00 3.500000000000000e+00
0.000000000000000e+00 -5.000000000000000e-01 3.500000000000000e+00
0.000000000000000e+00 -5.000000000000000e-01 3.000000000000000e+00
0.000000000000000e+00 0.000000000000000e+00 3.000000000000000e+00
0.000000000000000e+00 0.000000000000000e+00 3.500000000000000e+00
-5.000000000000000e-01 -5.000000000000000e-01 3.000000000000000e+00
-5.000000000000000e-01 -5.000000000000000e-01 2.500000000000000e+00
-5.000000000000000e-01 0.000000000000000e+00 2.500000000000000e+00
-5.000000000000000e-01 0.000000000000000e+00 3.000000000000000e+00
0.000000000000000e+00 -5.000000000000000e-01 3.000000000000000e+00
0.000000000000000e+00 -5.000000000000000e-01 2.500000000000000e+00
0.000000000000000e+00 0.000000000000000e+00 2.500000000000000e+00
0.000000000000000e+00 0.000000000000000e+00 3.000000000000000e+00
-5.000000000000000e-01 -5.000000000000000e-01 2.500000000000000e+00
-5.000000000000000e-01 -5.000000000000000e-01 2.000000000000000e+00
-5.000000000000000e-01 0.000000000000000e+00 2.000000000000000e+00
-5.000000000000000e-01 0.000000000000000e+00 2.500000000000000e+00
0.000000000000000e+00 -5.000000000000000e-01 2.500000000000000e+00
0.000000000000000e+00 -5.000000000000000e-01 2.000000000000000e+00
0.000000000000000e+00 0.000000000000000e+00 2.000000000000000e+00
0.000000000000000e+00 0.000000000000000e+00 2.500000000000000e+00
-5.000000000000000e-01 -5.000000000000000e-01 2.000000000000000e+00
-5.000000000000000e-01 -5.000000000000000e-01 1.500000000000000e+00
-5.000000000000000e-01 0.000000000000000e+00 1.500000000000000e+00
-5.000000000000000e-01 0.000000000000000e+00 2.000000000000000e+00
0.000000000000000e+00 -5.000000000000000e-01 2.000000000000000e+00
0.000000000000000e+00 -5.000000000000000e-01 1.500000000000000e+00
0.000000000000000e+00 0.000000000000000e+00 1.500000000000000e+00
0.000000000000000e+00 0.000000000000000e+00 2.000000000000000e+00
-5.000000000000000e-01 -5.000000000000000e-01 1.500000000000000e+00
-5.000000000000000e-01 -5.000000000000000e-01 1.000000000000000e+00
-5.000000000000000e-01 0.000000000000000e+00 1.000000000000000e+00
-5.000000000000000e-01 0.000000000000000e+00 1.500000000000000e+00
0.000000000000000e+00 -5.000000000000000e-01 1.500000000000000e+00
0.000000000000000e+00 -5.000000000000000e-01 1.000000000000000e+00
0.000000000000000e+00 0.000000000000000e+00 1.000000000000000e+00
0.000000000000000e+00 0.000000000000000e+00 1.500000000000000e+00
-5.000000000000000e-01 -5.000000000000000e-01 1.000000000000000e+00
-5.000000000000000e-01 -5.000000000000000e-01 5.000000000000000e-01
-5.000000000000000e-01 0.000000000000000e+00 5.000000000000000e-01
-5.000000000000000e-01 0.000000000000000e+00 1.000000000000000e+00
0.000000000000000e+00 -5.000000000000000e-01 1.000000000000000e+00
0.000000000000000e+00 -5.000000000000000e-01 5.000000000000000e-01
0.000000000000000e+00 0.000000000000000e+00 5.000000000000000e-01
0.000000000000000e+00 0.000000000000000e+00 1.000000000000000e+00
-5.000000000000000e-01 -5.000000000000000e-01 5.000000000000000e-01
-5.000000000000000e-01 -5.000000000000000e-01 0.000000000000000e+00
-5.000000000000000e-01 0.000000000000000e+00 0.000000000000000e+00
-5.000000000000000e-01 0.000000000000000e+00 5.000000000000000e-01
0.000000000000000e+00 -5.000000000000000e-01 5.000000000000000e-01
0.000000000000000e+00 -5.000000000000000e-01 0.000000000000000e+00
0.000000000000000e+00 0.000000000000000e+00 0.000000000000000e+00
0.000000000000000e+00 0.000000000000000e+00 5.000000000000000e-01
-5.000000000000000e-01 0.000000000000000e+00 5.000000000000000e+00
-5.000000000000000e-01 0.000000000000000e+00 4.500000000000000e+00
-5.000000000000000e-01 5.000000000000000e-01 4.500000000000000e+00
-5.000000000000000e-01 5.000000000000000e-01 5.000000000000000e+00
0.000000000000000e+00 0.000000000000000e+00 5.000000000000000e+00
0.000000000000000e+00 0.000000000000000e+00 4.500000000000000e+00
0.000000000000000e+00 5.000000000000000e-01 4.500000000000000e+00
0.000000000000000e+00 5.000000000000000e-01 5.000000000000000e+00
-5.000000000000000e-01 0.000000000000000e+00 4.500000000000000e+00
-5.000000000000000e-01 0.000000000000000e+00 4.000000000000000e+00
-5.000000000000000e-01 5.000000000000000e-01 4.000000000000000e+00
-5.000000000000000e-01 5.000000000000000e-01 4.500000000000000e+00
0.000000000000000e+00 0.000000000000000e+00 4.500000000000000e+00
0.000000000000000e+00 0.000000000000000e+00 4.000000000000000e+00
0.000000000000000e+00 5.000000000000000e-01 4.000000000000000e+00
0.000000000000000e+00 5.000000000000000e-01 4.500000000000000e+00
-5.000000000000000e-01 0.000000000000000e+00 4.000000000000000e+00
-5.000000000000000e-01 0.000000000000000e+00 3.500000000000000e+00
-5.000000000000000e-01 5.000000000000000e-01 3.500000000000000e+00
-5.000000000000000e-01 5.000000000000000e-01 4.000000000000000e+00
0.000000000000000e+00 0.000000000000000e+00 4.000000000000000e+00
0.000000000000000e+00 0.000000000000000e+00 3.500000000000000e+00
0.000000000000000e+00 5.000000000000000e-01 3.500000000000000e+00
0.000000000000000e+00 5.000000000000000e-01 4.000000000000000e+00
-5.000000000000000e-01 0.000000000000000e+00 3.500000000000000e+00
-5.000000000000000e-01 0.000000000000000e+00 3.000000000000000e+00
-5.000000000000000e-01 5.000000000000000e-01 3.000000000000000e+00
-5.000000000000000e-01 5.000000000000000e-01 3.500000000000000e+00
0.000000000000000e+00 0.000000000000000e+00 3.500000000000000e+00
0.000000000000000e+00 0.000000000000000e+00 3.000000000000000e+00
0.000000000000000e+00 5.000000000000000e-01 3.000000000000000e+00
0.000000000000000e+00 5.000000000000000e-01 3.500000000000000e+00
-5.000000000000000e-01 0.000000000000000e+00 3.000000000000000e+00
-5.000000000000000e-01 0.000000000000000e+00 2.500000000000000e+00
-5.000000000000000e-01 5.000000000000000e-01 2.500000000000000e+00
-5.000000000000000e-01 5.000000000000000e-01 3.000000000000000e+00
0.000000000000000e+00 0.000000000000000e+00 3.000000000000000e+00
0.000000000000000e+00 0.000000000000000e+00 2.500000000000000e+00
0.000000000000000e+00 5.000000000000000e-01 2.500000000000000e+00
0.000000000000000e+00 5.000000000000000e-01 3.000000000000000e+00
-5.000000000000000e-01 0.000000000000000e+00 2.500000000000000e+00
-5.000000000000000e-01 0.000000000000000e+00 2.000000000000000e+00
-5.000000000000000e-01 5.000000000000000e-01 2.000000000000000e+00
-5.000000000000000e-01 5.000000000000000e-01 2.500000000000000e+00
0.000000000000000e+00 0.000000000000000e+00 2.500000000000000e+00
0.000000000000000e+00 0.000000000000000e+00 2.000000000000000e+00
0.000000000000000e+00 5.000000000000000e-01 2.000000000000000e+00
0.000000000000000e+00 5.000000000000000e-01 2.500000000000000e+00
-5.000000000000000e-01 0.000000000000000e+00 2.000000000000000e+00
-5.000000000000000e-01 0.000000000000000e+00 1.500000000000000e+00
-5.000000000000000e-01 5.000000000000000e-01 1.500000000000000e+00
-5.000000000000000e-01 5.000000000000000e-01 2.000000000000000e+00
0.000000000000000e+00 0.000000000000000e+00 2.000000000000000e+00
0.000000000000000e+00 0.000000000000000e+00 1.500000000000000e+00
0.000000000000000e+00 5.000000000000000e-01 1.500000000000000e+00
0.000000000000000e+00 5.000000000000000e-01 2.000000000000000e+00
-5.000000000000000e-01 0.000000000000000e+00 1.500000000000000e+00
-5.000000000000000e-01 0.000000000000000e+00 1.000000000000000e+00
-5.000000000000000e-01 5.000000000000000e-01 1.000000000000000e+00
-5.000000000000000e-01 5.000000000000000e-01 1.500000000000000e+00
0.000000000000000e+00 0.000000000000000e+00 1.500000000000000e+00
0.000000000000000e+00 0.000000000000000e+00 1.000000000000000e+00
[...]
  <PointData>
        <DataArray type="Float64" Name="displacement" NumberOfComponents="3" format="ascii">
2.957607997573833e-02 5.845159973170824e-02 1.149911501758604e-02
-4.685650503650749e-03 -1.004568874199826e-02 4.250343544479372e-03
-5.100452668309112e-03 -1.084108793385631e-02 1.403866369433965e-03
2.914679035307183e-02 5.763564603988482e-02 3.834488927296742e-03
2.881782301994234e-02 5.829358070614375e-02 7.668977854593691e-03
-5.420543966928076e-03 -1.020090533661824e-02 2.807732738867817e-03
-5.387339578018461e-03 -1.077467915603693e-02 7.516612975643649e-18
2.885394368923008e-02 5.770788737846012e-02 9.873405393357103e-18
-4.685650503650749e-03 -1.004568874199826e-02 4.250343544479372e-03
1.029750334050844e-03 1.903535685822239e-03 -1.133526034568943e-03
9.342697503026635e-04 1.722744151301608e-03 -3.979033254970213e-04
-5.100452668309112e-03 -1.084108793385631e-02 1.403866369433965e-03
-5.420543966928076e-03 -1.020090533661824e-02 2.807732738867817e-03
8.613720756507514e-04 1.868539500605439e-03 -7.958066509939953e-04
8.707613545424729e-04 1.741522709084893e-03 -4.305074322579685e-17
-5.387339578018461e-03 -1.077467915603693e-02 7.516612975643649e-18
1.029750334050844e-03 1.903535685822239e-03 -1.133526034568943e-03
-2.497687721720936e-04 -3.828254354388944e-04 2.023934273220082e-04
-1.777519909671124e-04 -2.434573068302890e-04 6.605225837842750e-05
9.342697503026635e-04 1.722744151301608e-03 -3.979033254970213e-04
8.613720756507514e-04 1.868539500605439e-03 -7.958066509939953e-04
-1.217286534151685e-04 -3.555039819342815e-04 1.321045167566235e-04
-1.257451472680708e-04 -2.514902945362384e-04 2.510673418203646e-17
8.707613545424729e-04 1.741522709084893e-03 -4.305074322579685e-17
-2.497687721720936e-04 -3.828254354388944e-04 2.023934273220082e-04
5.888976261994815e-05 7.911046113300421e-05 -3.098484111950263e-05
3.464740536651327e-05 3.006197505813757e-05 -7.078742324918205e-06
-1.777519909671124e-04 -2.434573068302890e-04 6.605225837842750e-05
-1.217286534151685e-04 -3.555039819342815e-04 1.321045167566235e-04
1.503098752911776e-05 6.929481073305882e-05 -1.415748464989891e-05
1.621750422855488e-05 3.243500845713978e-05 6.133278208919156e-17
-1.257451472680708e-04 -2.514902945362384e-04 2.510673418203646e-17
5.888976261994815e-05 7.911046113300421e-05 -3.098484111950263e-05
-1.312590786297868e-05 -1.648411698436805e-05 4.274994857110409e-06
-6.828815227318636e-06 -2.815896746120133e-06 4.609866009494249e-08
3.464740536651327e-05 3.006197505813757e-05 -7.078742324918205e-06
1.503098752911776e-05 6.929481073305882e-05 -1.415748464989891e-05
-1.407948373062405e-06 -1.365763045462199e-05 9.219732021986045e-08
-1.812772942987742e-06 -3.625545885995758e-06 -6.712215876305795e-17
1.621750422855488e-05 3.243500845713978e-05 6.133278208919156e-17
-1.312590786297868e-05 -1.648411698436805e-05 4.274994857110409e-06
2.778283816549963e-06 3.435332217521806e-06 -5.108320595964040e-07
1.348480778157597e-06 2.216652468918096e-08 2.282306962043026e-07
-6.828815227318636e-06 -2.815896746120133e-06 4.609866009494249e-08
-1.407948373062405e-06 -1.365763045462199e-05 9.219732021986045e-08
1.108326231387883e-08 2.696961556333623e-06 4.564613924250319e-07
1.586606481233972e-07 3.173212962397843e-07 2.794380447795290e-18
-1.812772942987742e-06 -3.625545885995758e-06 -6.712215876305795e-17
2.778283816549963e-06 3.435332217521806e-06 -5.108320595964040e-07
-5.650839508386557e-07 -7.146364303492484e-07 3.950234662263625e-08
-2.654791812609433e-07 8.862431832114479e-08 -7.961794505615364e-08
1.348480778157597e-06 2.216652468918096e-08 2.282306962043026e-07
1.108326231387883e-08 2.696961556333623e-06 4.564613924250319e-07
4.431215916228826e-08 -5.309583625324332e-07 -1.592358901291512e-07
-6.028051555519422e-09 -1.205610313415647e-08 1.987555525376581e-17
1.586606481233972e-07 3.173212962397843e-07 2.794380447795290e-18
-5.650839508386557e-07 -7.146364303492484e-07 3.950234662263625e-08
1.118546410747690e-07 1.485198418636314e-07 4.278963049625970e-09
5.202411833145249e-08 -3.416883937628827e-08 1.974150743016697e-08
-2.654791812609433e-07 8.862431832114479e-08 -7.961794505615364e-08
4.431215916228826e-08 -5.309583625324332e-07 -1.592358901291512e-07
-1.708441967862548e-08 1.040482366617178e-07 3.948301490992634e-08
-1.558609086599666e-09 -3.117218156930909e-09 -1.297116136215649e-18
-6.028051555519422e-09 -1.205610313415647e-08 1.987555525376581e-17
1.118546410747690e-07 1.485198418636314e-07 4.278963049625970e-09
-2.181174225643524e-08 -3.089044136610589e-08 -3.353564766843856e-09
-1.015317836535524e-08 9.809115729992973e-09 -4.184411144569647e-09
5.202411833145249e-08 -3.416883937628827e-08 1.974150743016697e-08
-1.708441967862548e-08 1.040482366617178e-07 3.948301490992634e-08
4.904557841183721e-09 -2.030635669115054e-08 -8.368822287244503e-09
5.394446567390603e-10 1.078889296762194e-09 -5.331146856470122e-18
-1.558609086599666e-09 -3.117218156930909e-09 -1.297116136215649e-18
-2.181174225643524e-08 -3.089044136610589e-08 -3.353564766843856e-09
4.237079574205914e-09 6.440369225387594e-09 1.192331436280428e-09
1.976777028888889e-09 -2.507384062149175e-09 8.046971735898019e-10
-1.015317836535524e-08 9.809115729992973e-09 -4.184411144569647e-09
4.904557841183721e-09 -2.030635669115054e-08 -8.368822287244503e-09
-1.253692021221474e-09 3.953554011672682e-09 1.609394340425783e-09
-1.165566964679828e-10 -2.331134015498652e-10 7.072631618819430e-19
5.394446567390603e-10 1.078889296762194e-09 -5.331146856470122e-18
2.914679035307183e-02 5.763564603988482e-02 3.834488927296742e-03
-5.100452668309112e-03 -1.084108793385631e-02 1.403866369433965e-03
-5.584834149913078e-03 -1.049528056512933e-02 -1.416781181493047e-03
2.864199968271348e-02 5.798455958519567e-02 -3.833038339195440e-03
2.885394368923008e-02 5.770788737846012e-02 9.873405393357103e-18
-5.387339578018461e-03 -1.077467915603693e-02 7.516612975643649e-18
-5.420543966928162e-03 -1.020090533661817e-02 -2.807732738867801e-03
2.881782301994247e-02 5.829358070614379e-02 -7.668977854593647e-03
-5.100452668309112e-03 -1.084108793385631e-02 1.403866369433965e-03
9.342697503026635e-04 1.722744151301608e-03 -3.979033254970213e-04
8.217970243447131e-04 1.799559030969139e-03 3.778420115228694e-04
-5.584834149913078e-03 -1.049528056512933e-02 -1.416781181493047e-03
-5.387339578018461e-03 -1.077467915603693e-02 7.516612975643649e-18
8.707613545424729e-04 1.741522709084893e-03 -4.305074322579685e-17
8.613720756508006e-04 1.868539500605425e-03 7.958066509939000e-04
-5.420543966928162e-03 -1.020090533661817e-02 -2.807732738867801e-03
9.342697503026635e-04 1.722744151301608e-03 -3.979033254970213e-04
-1.777519909671124e-04 -2.434573068302890e-04 6.605225837842750e-05
-9.415262696504698e-05 -3.050173628354729e-04 -6.746447577377478e-05
8.217970243447131e-04 1.799559030969139e-03 3.778420115228694e-04
8.707613545424729e-04 1.741522709084893e-03 -4.305074322579685e-17
-1.257451472680708e-04 -2.514902945362384e-04 2.510673418203646e-17
-1.217286534151023e-04 -3.555039819342948e-04 -1.321045167565666e-04
8.613720756508006e-04 1.868539500605425e-03 7.958066509939000e-04
-1.777519909671124e-04 -2.434573068302890e-04 6.605225837842750e-05
3.464740536651327e-05 3.006197505813757e-05 -7.078742324918205e-06
7.331010477404074e-06 5.333108506177623e-05 1.032828037324626e-05
-9.415262696504698e-05 -3.050173628354729e-04 -6.746447577377478e-05
-1.257451472680708e-04 -2.514902945362384e-04 2.510673418203646e-17
1.621750422855488e-05 3.243500845713978e-05 6.133278208919156e-17
1.503098752900876e-05 6.929481073309335e-05 1.415748464997161e-05
-1.217286534151023e-04 -3.555039819342948e-04 -1.321045167565666e-04
3.464740536651327e-05 3.006197505813757e-05 -7.078742324918205e-06
-6.828815227318636e-06 -2.815896746120133e-06 4.609866009494249e-08
-1.023095405966009e-07 -9.972317823034812e-06 -1.424998285710511e-06
7.331010477404074e-06 5.333108506177623e-05 1.032828037324626e-05
1.621750422855488e-05 3.243500845713978e-05 6.133278208919156e-17
-1.812772942987742e-06 -3.625545885995758e-06 -6.712215876305795e-17
-1.407948373006094e-06 -1.365763045458172e-05 -9.219732032524367e-08
1.503098752900876e-05 6.929481073309335e-05 1.415748464997161e-05
-6.828815227318636e-06 -2.815896746120133e-06 4.609866009494249e-08
1.348480778157597e-06 2.216652468918096e-08 2.282306962043026e-07
-5.003007102818350e-08 2.021175273673815e-06 1.702773531693396e-07
-1.023095405966009e-07 -9.972317823034812e-06 -1.424998285710511e-06
-1.812772942987742e-06 -3.625545885995758e-06 -6.712215876305795e-17
1.586606481233972e-07 3.173212962397843e-07 2.794380447795290e-18
1.108326232523979e-08 2.696961556291394e-06 -4.564613924189088e-07
-1.407948373006094e-06 -1.365763045458172e-05 -9.219732032524367e-08
1.348480778157597e-06 2.216652468918096e-08 2.282306962043026e-07
-2.654791812609433e-07 8.862431832114479e-08 -7.961794505615364e-08
-1.104198903079942e-08 -4.376154493842910e-07 -1.316744884516405e-08
-5.003007102818350e-08 2.021175273673815e-06 1.702773531693396e-07
1.586606481233972e-07 3.173212962397843e-07 2.794380447795290e-18
-6.028051555519422e-09 -1.205610313415647e-08 1.987555525376581e-17
4.431215917099596e-08 -5.309583625272435e-07 1.592358901439961e-07
1.108326232523979e-08 2.696961556291394e-06 -4.564613924189088e-07
-2.654791812609433e-07 8.862431832114479e-08 -7.961794505615364e-08
5.202411833145249e-08 -3.416883937628827e-08 1.974150743016697e-08
1.160205393930293e-08 9.839354829102806e-08 -1.426321023943590e-09
-1.104198903079942e-08 -4.376154493842910e-07 -1.316744884516405e-08
-6.028051555519422e-09 -1.205610313415647e-08 1.987555525376581e-17
-1.558609086599666e-09 -3.117218156930909e-09 -1.297116136215649e-18
-1.708441970518214e-08 1.040482366877242e-07 -3.948301489493520e-08
4.431215917099596e-08 -5.309583625272435e-07 1.592358901439961e-07
5.202411833145249e-08 -3.416883937628827e-08 1.974150743016697e-08
-1.015317836535524e-08 9.809115729992973e-09 -4.184411144569647e-09
-4.834351330029122e-09 -2.240174581522915e-08 1.117854910584357e-09
1.160205393930293e-08 9.839354829102806e-08 -1.426321023943590e-09
-1.558609086599666e-09 -3.117218156930909e-09 -1.297116136215649e-18
5.394446567390603e-10 1.078889296762194e-09 -5.331146856470122e-18
4.904557868705516e-09 -2.030635667230994e-08 8.368822276110812e-09
-1.708441970518214e-08 1.040482366877242e-07 -3.948301489493520e-08
-1.015317836535524e-08 9.809115729992973e-09 -4.184411144569647e-09
1.976777028888889e-09 -2.507384062149175e-09 8.046971735898019e-10
1.525359652592747e-09 5.084509260799254e-09 -3.974438109270097e-10
-4.834351330029122e-09 -2.240174581522915e-08 1.117854910584357e-09
5.394446567390603e-10 1.078889296762194e-09 -5.331146856470122e-18
-1.165566964679828e-10 -2.331134015498652e-10 7.072631618819430e-19
-1.253692025513436e-09 3.953553997905036e-09 -1.609394335600113e-09
4.904557868705516e-09 -2.030635667230994e-08 8.368822276110812e-09
2.881782301994234e-02 5.829358070614375e-02 7.668977854593691e-03
-5.420543966928076e-03 -1.020090533661824e-02 2.807732738867817e-03
-5.387339578018461e-03 -1.077467915603693e-02 7.516612975643649e-18
2.885394368923008e-02 5.770788737846012e-02 9.873405393357103e-18
2.864199968271349e-02 5.798455958519572e-02 3.833038339195478e-03
-5.584834149912980e-03 -1.049528056512936e-02 1.416781181493067e-03
-5.100452668309120e-03 -1.084108793385628e-02 -1.403866369433952e-03
2.914679035307188e-02 5.763564603988482e-02 -3.834488927296723e-03
-5.420543966928076e-03 -1.020090533661824e-02 2.807732738867817e-03
8.613720756507514e-04 1.868539500605439e-03 -7.958066509939953e-04
8.707613545424729e-04 1.741522709084893e-03 -4.305074322579685e-17
-5.387339578018461e-03 -1.077467915603693e-02 7.516612975643649e-18
-5.584834149912980e-03 -1.049528056512936e-02 1.416781181493067e-03
8.217970243447204e-04 1.799559030969133e-03 -3.778420115230236e-04
9.342697503026778e-04 1.722744151301585e-03 3.979033254969173e-04
-5.100452668309120e-03 -1.084108793385628e-02 -1.403866369433952e-03
8.613720756507514e-04 1.868539500605439e-03 -7.958066509939953e-04
-1.217286534151685e-04 -3.555039819342815e-04 1.321045167566235e-04
-1.257451472680708e-04 -2.514902945362384e-04 2.510673418203646e-17
8.707613545424729e-04 1.741522709084893e-03 -4.305074322579685e-17
8.217970243447204e-04 1.799559030969133e-03 -3.778420115230236e-04
-9.415262696512362e-05 -3.050173628354445e-04 6.746447577385874e-05
-1.777519909671435e-04 -2.434573068303397e-04 -6.605225837836276e-05
9.342697503026778e-04 1.722744151301585e-03 3.979033254969173e-04
-1.217286534151685e-04 -3.555039819342815e-04 1.321045167566235e-04
1.503098752911776e-05 6.929481073305882e-05 -1.415748464989891e-05
1.621750422855488e-05 3.243500845713978e-05 6.133278208919156e-17
-1.257451472680708e-04 -2.514902945362384e-04 2.510673418203646e-17
-9.415262696512362e-05 -3.050173628354445e-04 6.746447577385874e-05
7.331010477540861e-06 5.333108506176031e-05 -1.032828037323285e-05
3.464740536655878e-05 3.006197505817626e-05 7.078742325054292e-06
-1.777519909671435e-04 -2.434573068303397e-04 -6.605225837836276e-05
1.503098752911776e-05 6.929481073305882e-05 -1.415748464989891e-05
-1.407948373062405e-06 -1.365763045462199e-05 9.219732021986045e-08
-1.812772942987742e-06 -3.625545885995758e-06 -6.712215876305795e-17
1.621750422855488e-05 3.243500845713978e-05 6.133278208919156e-17
7.331010477540861e-06 5.333108506176031e-05 -1.032828037323285e-05
-1.023095406072464e-07 -9.972317823058523e-06 1.424998285732970e-06
-6.828815227279138e-06 -2.815896746170048e-06 -4.609866025302608e-08
3.464740536655878e-05 3.006197505817626e-05 7.078742325054292e-06
-1.407948373062405e-06 -1.365763045462199e-05 9.219732021986045e-08
1.108326231387883e-08 2.696961556333623e-06 4.564613924250319e-07
1.586606481233972e-07 3.173212962397843e-07 2.794380447795290e-18
-1.812772942987742e-06 -3.625545885995758e-06 -6.712215876305795e-17
-1.023095406072464e-07 -9.972317823058523e-06 1.424998285732970e-06
-5.003007104192516e-08 2.021175273726594e-06 -1.702773532056009e-07
1.348480778121109e-06 2.216652467187712e-08 -2.282306961886095e-07
-6.828815227279138e-06 -2.815896746170048e-06 -4.609866025302608e-08
1.108326231387883e-08 2.696961556333623e-06 4.564613924250319e-07
4.431215916228826e-08 -5.309583625324332e-07 -1.592358901291512e-07
-6.028051555519422e-09 -1.205610313415647e-08 1.987555525376581e-17
1.586606481233972e-07 3.173212962397843e-07 2.794380447795290e-18
-5.003007104192516e-08 2.021175273726594e-06 -1.702773532056009e-07
-1.104198896834628e-08 -4.376154493647586e-07 1.316744887650671e-08
-2.654791812474204e-07 8.862431832023390e-08 7.961794509196240e-08
1.348480778121109e-06 2.216652467187712e-08 -2.282306961886095e-07
4.431215916228826e-08 -5.309583625324332e-07 -1.592358901291512e-07
-1.708441967862548e-08 1.040482366617178e-07 3.948301490992634e-08
-1.558609086599666e-09 -3.117218156930909e-09 -1.297116136215649e-18
-6.028051555519422e-09 -1.205610313415647e-08 1.987555525376581e-17
-1.104198896834628e-08 -4.376154493647586e-07 1.316744887650671e-08
1.160205398324332e-08 9.839354826746087e-08 1.426321049088849e-09
5.202411832597395e-08 -3.416883936839113e-08 -1.974150742949609e-08
-2.654791812474204e-07 8.862431832023390e-08 7.961794509196240e-08
-1.708441967862548e-08 1.040482366617178e-07 3.948301490992634e-08
4.904557841183721e-09 -2.030635669115054e-08 -8.368822287244503e-09
5.394446567390603e-10 1.078889296762194e-09 -5.331146856470122e-18
-1.558609086599666e-09 -3.117218156930909e-09 -1.297116136215649e-18
1.160205398324332e-08 9.839354826746087e-08 1.426321049088849e-09
-4.834351298960011e-09 -2.240174580279800e-08 -1.117854931635429e-09
-1.015317834134942e-08 9.809115685946664e-09 4.184411132025770e-09
5.202411832597395e-08 -3.416883936839113e-08 -1.974150742949609e-08
4.904557841183721e-09 -2.030635669115054e-08 -8.368822287244503e-09
-1.253692021221474e-09 3.953554011672682e-09 1.609394340425783e-09
-1.165566964679828e-10 -2.331134015498652e-10 7.072631618819430e-19
5.394446567390603e-10 1.078889296762194e-09 -5.331146856470122e-18
-4.834351298960011e-09 -2.240174580279800e-08 -1.117854931635429e-09
1.525359660589294e-09 5.084509302839992e-09 3.974438100138491e-10
1.976776974058944e-09 -2.507384072614952e-09 -8.046971747829362e-10
-1.015317834134942e-08 9.809115685946664e-09 4.184411132025770e-09
2.885394368923008e-02 5.770788737846012e-02 9.873405393357103e-18
-5.387339578018461e-03 -1.077467915603693e-02 7.516612975643649e-18
-5.420543966928162e-03 -1.020090533661817e-02 -2.807732738867801e-03
2.881782301994247e-02 5.829358070614379e-02 -7.668977854593647e-03
2.914679035307188e-02 5.763564603988482e-02 -3.834488927296723e-03
-5.100452668309120e-03 -1.084108793385628e-02 -1.403866369433952e-03
-4.685650503650752e-03 -1.004568874199814e-02 -4.250343544479364e-03
2.957607997573846e-02 5.845159973170817e-02 -1.149911501758599e-02
-5.387339578018461e-03 -1.077467915603693e-02 7.516612975643649e-18
8.707613545424729e-04 1.741522709084893e-03 -4.305074322579685e-17
8.613720756508006e-04 1.868539500605425e-03 7.958066509939000e-04
-5.420543966928162e-03 -1.020090533661817e-02 -2.807732738867801e-03
-5.100452668309120e-03 -1.084108793385628e-02 -1.403866369433952e-03
9.342697503026778e-04 1.722744151301585e-03 3.979033254969173e-04
1.029750334050838e-03 1.903535685822229e-03 1.133526034568895e-03
-4.685650503650752e-03 -1.004568874199814e-02 -4.250343544479364e-03
8.707613545424729e-04 1.741522709084893e-03 -4.305074322579685e-17
-1.257451472680708e-04 -2.514902945362384e-04 2.510673418203646e-17
-1.217286534151023e-04 -3.555039819342948e-04 -1.321045167565666e-04
8.613720756508006e-04 1.868539500605425e-03 7.958066509939000e-04
9.342697503026778e-04 1.722744151301585e-03 3.979033254969173e-04
-1.777519909671435e-04 -2.434573068303397e-04 -6.605225837836276e-05
-2.497687721720439e-04 -3.828254354389099e-04 -2.023934273219740e-04
1.029750334050838e-03 1.903535685822229e-03 1.133526034568895e-03
-1.257451472680708e-04 -2.514902945362384e-04 2.510673418203646e-17
1.621750422855488e-05 3.243500845713978e-05 6.133278208919156e-17
1.503098752900876e-05 6.929481073309335e-05 1.415748464997161e-05
-1.217286534151023e-04 -3.555039819342948e-04 -1.321045167565666e-04
-1.777519909671435e-04 -2.434573068303397e-04 -6.605225837836276e-05
3.464740536655878e-05 3.006197505817626e-05 7.078742325054292e-06
5.888976261990077e-05 7.911046113305429e-05 3.098484111963418e-05
-2.497687721720439e-04 -3.828254354389099e-04 -2.023934273219740e-04
1.621750422855488e-05 3.243500845713978e-05 6.133278208919156e-17
-1.812772942987742e-06 -3.625545885995758e-06 -6.712215876305795e-17
-1.407948373006094e-06 -1.365763045458172e-05 -9.219732032524367e-08
1.503098752900876e-05 6.929481073309335e-05 1.415748464997161e-05
3.464740536655878e-05 3.006197505817626e-05 7.078742325054292e-06
-6.828815227279138e-06 -2.815896746170048e-06 -4.609866025302608e-08
-1.312590786300126e-05 -1.648411698428411e-05 -4.274994857358366e-06
5.888976261990077e-05 7.911046113305429e-05 3.098484111963418e-05
-1.812772942987742e-06 -3.625545885995758e-06 -6.712215876305795e-17
1.586606481233972e-07 3.173212962397843e-07 2.794380447795290e-18
1.108326232523979e-08 2.696961556291394e-06 -4.564613924189088e-07
-1.407948373006094e-06 -1.365763045458172e-05 -9.219732032524367e-08
-6.828815227279138e-06 -2.815896746170048e-06 -4.609866025302608e-08
1.348480778121109e-06 2.216652467187712e-08 -2.282306961886095e-07
2.778283816568511e-06 3.435332217458492e-06 5.108320596554577e-07
-1.312590786300126e-05 -1.648411698428411e-05 -4.274994857358366e-06
1.586606481233972e-07 3.173212962397843e-07 2.794380447795290e-18
-6.028051555519422e-09 -1.205610313415647e-08 1.987555525376581e-17
4.431215917099596e-08 -5.309583625272435e-07 1.592358901439961e-07
1.108326232523979e-08 2.696961556291394e-06 -4.564613924189088e-07
1.348480778121109e-06 2.216652467187712e-08 -2.282306961886095e-07
-2.654791812474204e-07 8.862431832023390e-08 7.961794509196240e-08