<?xml version="1.0" ?> 
<!-- 
# vtk DataFile Version 3.0
-->
<VTKFile type="UnstructuredGrid" version="0.1" compressor="vtkZLibDataCompressor" byte_order="LittleEndian">
  <UnstructuredGrid>
    <FieldData>
      <DataArray type="Float64" Name="TIME" NumberOfTuples="1" format="ascii">
4.999999999999999e-01 
      </DataArray>
    </FieldData>

    <Piece NumberOfPoints="24" NumberOfCells="4" >
      <Points>
        <DataArray type="Float64" NumberOfComponents="3" format="ascii">
-4.990000000000000e-01 -1.000000000000000e+00 -2.704000000000000e-01
-4.494922787957396e-01 -8.997878290450910e-01 -2.688761085581200e-01
-4.009186026630938e-01 -7.992058077365539e-01 -2.645037030888598e-01
-3.532075644860477e-01 -6.983348106801718e-01 -2.575694024742506e-01
-3.062877571485870e-01 -5.972557124817282e-01 -2.483598255963236e-01
-2.600877735346970e-01 -4.960493877470062e-01 -2.371615913371099e-01
-2.600877735346970e-01 -4.960493877470062e-01 -2.371615913371099e-01
-2.145262377712379e-01 -3.947772863934690e-01 -2.242619613567441e-01
-1.695004841153690e-01 -2.934567580054749e-01 -2.099462677190692e-01
-1.249071706465241e-01 -1.921025266891496e-01 -1.944982349116787e-01
-8.064295544413698e-02 -9.072931655061882e-02 -1.782015874221659e-01
-3.660449658764157e-02 1.064814830399130e-02 -1.613400497381245e-01
-3.660449658764157e-02 1.064814830399130e-02 -1.613400497381245e-01
7.335528414478705e-03 1.120236604078305e-01 -1.442442534521320e-01
5.124406397703830e-02 2.134004873410716e-01 -1.270754767665100e-01
9.513388490555036e-02 3.147781175681232e-01 -1.098634140834680e-01
1.390177660055281e-01 4.161560395533944e-01 -9.263775980521555e-02
1.829084820824845e-01 5.175337417612939e-01 -7.542820833396223e-02
1.829084820824845e-01 5.175337417612939e-01 -7.542820833396223e-02
2.268068518386765e-01 6.189111624863087e-01 -5.823655664036445e-02
2.707051860550627e-01 7.202885814690285e-01 -4.104482484544193e-02
3.146034976552087e-01 8.216659993430151e-01 -2.385304207694911e-02
3.585017995626806e-01 9.230434167418302e-01 -6.661237462640444e-03
4.024001047010438e-01 1.024420834299036e+00 1.053055986972961e-02
        </DataArray>
      </Points>

      <Cells>
        <DataArray type="Int32" Name="connectivity" format="ascii">
0 1 2 3 4 5 6 7 8 9 10 11 12 13 14 15 16 17 18 19 20 21 22 23 
        </DataArray>
        <DataArray type="Int32" Name="offsets" format="ascii">
6 12 18 24 
        </DataArray>
        <DataArray type="UInt8" Name="types" format="ascii">
4 4 4 4 
        </DataArray>
      </Cells>

  <PointData>
        <DataArray type="Float64" Name="base_vector_1" NumberOfComponents="3" format="ascii">
4.472135954999578e-01 8.944271909999162e-01 -2.305693636104581e-19
4.386279904911407e-01 8.982703341883570e-01 2.675617078061155e-02
4.305477458663611e-01 9.011283124584927e-01 5.095491158960610e-02
4.230682933339980e-01 9.031855805023125e-01 7.258805926706834e-02
4.162728138528371e-01 9.046083299275406e-01 9.165540831149743e-02
4.102329001910719e-01 9.055439658002763e-01 1.081623483636073e-01
4.102329001910717e-01 9.055439658002766e-01 1.081623483636074e-01
4.050133941951529e-01 9.061203701217718e-01 1.221066147794859e-01
4.006649326530728e-01 9.064467966428049e-01 1.334983767620659e-01
3.972280450360731e-01 9.066128161419481e-01 1.423484522008786e-01
3.947337902296032e-01 9.066881976135887e-01 1.486665636893320e-01
3.932041187708687e-01 9.067228674495750e-01 1.524603641135797e-01
3.932041187708687e-01 9.067228674495748e-01 1.524603641135797e-01
3.928595730512408e-01 9.067372301510755e-01 1.532610561099989e-01
3.926305820747253e-01 9.067464992942843e-01 1.537921065504426e-01
3.925173458957480e-01 9.067511365016273e-01 1.540535933497336e-01
3.925199630150576e-01 9.067513692295063e-01 1.540455550643173e-01
3.926384305252488e-01 9.067471907624299e-01 1.537679905543110e-01
3.926384305252488e-01 9.067471907624302e-01 1.537679905543111e-01
3.926384305252488e-01 9.067471907624302e-01 1.537679905543111e-01
3.926384305252488e-01 9.067471907624302e-01 1.537679905543111e-01
3.926384305252488e-01 9.067471907624302e-01 1.537679905543111e-01
3.926384305252488e-01 9.067471907624302e-01 1.537679905543111e-01
3.926384305252488e-01 9.067471907624302e-01 1.537679905543111e-01
        </DataArray>
        <DataArray type="Float64" Name="base_vector_2" NumberOfComponents="3" format="ascii">
-8.944271909999162e-01 4.472135954999578e-01 1.424997034756963e-19
-8.985905562724864e-01 4.387880996340742e-01 -1.256877930911702e-04
-9.022903057488242e-01 4.311287461264892e-01 -4.565250209925542e-04
-9.055454464376970e-01 4.242482572246750e-01 -9.277272112320767e-04
-9.083741158696960e-01 4.181557979741852e-01 -1.481296229927695e-03
-9.107931954852516e-01 4.128577072011288e-01 -2.066074149569781e-03
-9.107931954852519e-01 4.128577072011286e-01 -2.066074149569781e-03
-9.128163666352785e-01 4.083617570241114e-01 -2.637461459439772e-03
-9.144570282112399e-01 4.046706938560496e-01 -3.158019811755224e-03
-9.157265472738688e-01 4.017859531657006e-01 -3.597006617803683e-03
-9.166339908566784e-01 3.997082409865095e-01 -3.930508062547397e-03
-9.171859852372101e-01 3.984378462083185e-01 -4.141399923331554e-03
-9.171859852372098e-01 3.984378462083185e-01 -4.141399923331568e-03
-9.173111341392840e-01 3.981491259154645e-01 -4.190073609375886e-03
-9.173942081032446e-01 3.979573306629093e-01 -4.222547841357074e-03
-9.174352805507918e-01 3.978624634600549e-01 -4.238651930317278e-03
-9.174343878117831e-01 3.978645257616891e-01 -4.238301646314335e-03
-9.173915290714366e-01 3.979635175898595e-01 -4.221499197803236e-03
-9.173915290714368e-01 3.979635175898595e-01 -4.221499197803250e-03
-9.173915290714368e-01 3.979635175898595e-01 -4.221499197803250e-03
-9.173915290714368e-01 3.979635175898595e-01 -4.221499197803222e-03
-9.173915290714368e-01 3.979635175898595e-01 -4.221499197803222e-03
-9.173915290714368e-01 3.979635175898595e-01 -4.221499197803222e-03
-9.173915290714368e-01 3.979635175898595e-01 -4.221499197803208e-03
        </DataArray>
        <DataArray type="Float64" Name="base_vector_3" NumberOfComponents="3" format="ascii">
2.305693636104581e-19 1.424997034756963e-19 1.000000000000000e+00
-1.185319094621269e-02 -2.398771220135853e-02 9.996419816753083e-01
-2.237951476437509e-02 -4.577956693887004e-02 9.987008503900457e-01
-3.163326747919960e-02 -6.533929456710792e-02 9.973615758460229e-01
-3.966623330982683e-02 -8.264077713985085e-02 9.957896825578842e-01
-4.652658012992757e-02 -9.766595930689106e-02 9.941310968549762e-01
-4.652658012992758e-02 -9.766595930689109e-02 9.941310968549762e-01
-5.225352930942672e-02 -1.103927092273973e-01 9.925134852606005e-01
-5.688545769506159e-02 -1.208132210896692e-01 9.910440001900834e-01
-6.045470084864043e-02 -1.289234247369180e-01 9.898100725388713e-01
-6.298699593670858e-02 -1.347213212364435e-01 9.888795699918045e-01
-6.450108112328935e-02 -1.382060937618060e-01 9.883009087221512e-01
-6.450108112328932e-02 -1.382060937618060e-01 9.883009087221512e-01
-6.482005126577164e-02 -1.389419626704149e-01 9.881768525740703e-01
-6.503147667309302e-02 -1.394300863845827e-01 9.880942050495514e-01
-6.513554461004857e-02 -1.396704572288064e-01 9.880534014950045e-01
-6.513234753236397e-02 -1.396630715001003e-01 9.880546562635496e-01
-6.502188295213182e-02 -1.394079291573726e-01 9.880979627675650e-01
-6.502188295213188e-02 -1.394079291573726e-01 9.880979627675650e-01
-6.502188295213189e-02 -1.394079291573726e-01 9.880979627675650e-01
-6.502188295213188e-02 -1.394079291573727e-01 9.880979627675650e-01
-6.502188295213188e-02 -1.394079291573727e-01 9.880979627675650e-01
-6.502188295213188e-02 -1.394079291573727e-01 9.880979627675650e-01
-6.502188295213182e-02 -1.394079291573726e-01 9.880979627675650e-01
        </DataArray>
        <DataArray type="Float64" Name="displacement" NumberOfComponents="3" format="ascii">
0.000000000000000e+00 0.000000000000000e+00 -2.500000000000000e-01
-4.922787957396535e-04 2.121709549088857e-04 -2.484761085581200e-01
-1.918602663093794e-03 7.941922634460141e-04 -2.441037030888598e-01
-4.207564486047755e-03 1.665189319828175e-03 -2.371694024742506e-01
-7.287757148587037e-03 2.744287518271826e-03 -2.279598255963236e-01
-1.108777353469703e-02 3.950612252993813e-03 -2.167615913371099e-01
-1.108777353469703e-02 3.950612252993813e-03 -2.167615913371099e-01
-1.552623777123796e-02 5.222713606530871e-03 -2.038619613567441e-01
-2.050048411536903e-02 6.543241994525051e-03 -1.895462677190692e-01
-2.590717064652409e-02 7.897473310850445e-03 -1.740982349116787e-01
-3.164295544413698e-02 9.270683449381173e-03 -1.578015874221659e-01
-3.760449658764158e-02 1.064814830399130e-02 -1.409400497381245e-01
-3.760449658764158e-02 1.064814830399130e-02 -1.409400497381245e-01
-4.366447158552134e-02 1.202366040783048e-02 -1.238442534521320e-01
-4.975593602296180e-02 1.340048734107152e-02 -1.066754767665100e-01
-5.586611509444978e-02 1.477811756812325e-02 -8.946341408346797e-02
-6.198223399447211e-02 1.615603955339434e-02 -7.223775980521555e-02
-6.809151791751572e-02 1.753374176129385e-02 -5.502820833396223e-02
-6.809151791751572e-02 1.753374176129385e-02 -5.502820833396223e-02
-7.419314816132372e-02 1.891116248630864e-02 -3.783655664036445e-02
-8.029481394493754e-02 2.028858146902857e-02 -2.064482484544192e-02
-8.639650234479140e-02 2.166599934301527e-02 -3.453042076949110e-03
-9.249820043731960e-02 2.304341674183030e-02 1.373876253735955e-02
-9.859989529895641e-02 2.442083429903597e-02 3.093055986972961e-02
        </DataArray>
  </PointData>
  <CellData>
        <DataArray type="Float64" Name="axial_strain_GPs" NumberOfComponents="3" format="ascii">
-3.514942375049124e-06 -2.103157497712616e-06 -1.045495148122022e-06
-1.045495147899977e-06 -3.499901928272209e-07 -2.820984617013522e-07
-2.820984619233968e-07 -1.766132462499570e-07 6.539675623251640e-08
6.539675623251640e-08 -3.330669073875470e-16 0.000000000000000e+00
        </DataArray>
        <DataArray type="Float64" Name="cross_section_radius" format="ascii">
2.000000000000000e-02
2.000000000000000e-02
2.000000000000000e-02
2.000000000000000e-02
        </DataArray>
        <DataArray type="Float64" Name="curvature_2_GPs" NumberOfComponents="3" format="ascii">
-2.379038550277059e-01 -1.939132236207375e-01 -1.499225896196873e-01
-1.242131704131190e-01 -8.001903704685905e-02 -3.582490107309825e-02
-7.103634816444358e-03 -2.371045487438091e-03 2.361543842080216e-03
-2.307555223660326e-16 0.000000000000000e+00 2.307555223660326e-16
        </DataArray>
        <DataArray type="Float64" Name="curvature_3_GPs" NumberOfComponents="3" format="ascii">
8.356518807835855e-02 6.821240950391277e-02 5.285963836236465e-02
4.388669198540324e-02 2.846217571549582e-02 1.303766691657793e-02
2.787306135117014e-03 9.357809094277198e-04 -9.157443149527745e-04
-1.121744652531540e-16 1.954995645682228e-16 5.031735943895995e-16
        </DataArray>
        <DataArray type="Float64" Name="element_owner" format="ascii">
0.000000000000000e+00
0.000000000000000e+00
0.000000000000000e+00
0.000000000000000e+00
        </DataArray>
        <DataArray type="Float64" Name="shear_strain_2_GPs" NumberOfComponents="3" format="ascii">
1.278140808724793e-05 1.289296511623631e-05 1.293961394349945e-05
1.293961394322190e-05 1.295322755426402e-05 1.235046013857660e-05
1.235046013840801e-05 1.554877719870925e-06 -6.418002805118990e-07
-6.418002803472087e-07 3.172375556692586e-16 2.083836575517140e-16
        </DataArray>
        <DataArray type="Float64" Name="shear_strain_3_GPs" NumberOfComponents="3" format="ascii">
3.662501218452002e-05 3.694248713295017e-05 3.707494120447352e-05
3.707494120443189e-05 3.711343742693329e-05 3.467635342818687e-05
3.467635342824238e-05 3.974343750406950e-06 -1.660823444410431e-06
-1.660823444549209e-06 0.000000000000000e+00 2.775557561562891e-17
        </DataArray>
        <DataArray type="Float64" Name="twist_GPs" NumberOfComponents="3" format="ascii">
5.677989793914737e-07 -7.095394793518383e-07 5.679925221258302e-07
5.678578791377194e-07 -7.098401571230317e-07 5.679382301560388e-07
9.289673114739272e-10 -1.161209437121861e-09 9.289673492899348e-10
3.601677086974609e-17 7.447602459741819e-17 1.129352783250903e-16
        </DataArray>
      </CellData>

    </Piece>
  </UnstructuredGrid>
</VTKFile>
