<?xml version="1.0" ?> 
<!-- 
# vtk DataFile Version 3.0
-->
<VTKFile type="UnstructuredGrid" version="0.1" compressor="vtkZLibDataCompressor" byte_order="LittleEndian">
  <UnstructuredGrid>
    <FieldData>
      <DataArray type="Float64" Name="TIME" NumberOfTuples="1" format="ascii">
3.000000700000000e-01 
      </DataArray>
    </FieldData>

    <Piece NumberOfPoints="24" NumberOfCells="4" >
      <Points>
        <DataArray type="Float64" NumberOfComponents="3" format="ascii">
-4.990000000000000e-01 -1.000000000000000e+00 -1.954000000000000e-01
-4.492588997998993e-01 -8.998895338764459e-01 -1.942371773056097e-01
-4.000076363180796e-01 -7.995872422717156e-01 -1.909077093078529e-01
-3.512066705141308e-01 -6.991363095911238e-01 -1.856402104354627e-01
-3.028164633476431e-01 -5.985799202399850e-01 -1.786632951171724e-01
-2.547974757782066e-01 -4.979612586236138e-01 -1.702055777817153e-01
-2.547974757782066e-01 -4.979612586236138e-01 -1.702055777817153e-01
-2.071045259670658e-01 -3.973123117248588e-01 -1.604958210200151e-01
-1.596804928077560e-01 -2.966407463531545e-01 -1.497619864452150e-01
-1.124679283583030e-01 -1.959532666536938e-01 -1.382314870193769e-01
-6.540938467673263e-02 -9.525657677166988e-02 -1.261317357045629e-01
-1.844741382107059e-02 5.442619147724250e-03 -1.136901454628349e-01
-1.844741382107059e-02 5.442619147724250e-03 -1.136901454628349e-01
2.848171014878213e-02 1.061412513378350e-01 -1.011428587172872e-01
7.540503201707779e-02 2.068405407456716e-01 -8.857903592684477e-02
1.223249779920206e-01 3.075402192965354e-01 -7.600561710731600e-02
1.692439742818150e-01 4.082400189157278e-01 -6.342954227450920e-02
2.161644470946649e-01 5.089396715285499e-01 -5.085775144423267e-02
2.161644470946649e-01 5.089396715285499e-01 -5.085775144423267e-02
2.630864618128789e-01 6.096391605320731e-01 -3.829040291752484e-02
3.100084683338424e-01 7.103386483316902e-01 -2.572303340555443e-02
3.569304696383746e-01 8.110381353651849e-01 -1.315565053932529e-02
4.038524687072951e-01 9.117376220703403e-01 -5.882619498412166e-04
4.507744685214232e-01 1.012437108884940e+00 1.197912473189394e-02
        </DataArray>
      </Points>

      <Cells>
        <DataArray type="Int32" Name="connectivity" format="ascii">
0 1 2 3 4 5 6 7 8 9 10 11 12 13 14 15 16 17 18 19 20 21 22 23 
        </DataArray>
        <DataArray type="Int32" Name="offsets" format="ascii">
6 12 18 24 
        </DataArray>
        <DataArray type="UInt8" Name="types" format="ascii">
4 4 4 4 
        </DataArray>
      </Cells>

  <PointData>
        <DataArray type="Float64" Name="base_vector_1" NumberOfComponents="3" format="ascii">
4.472135954999578e-01 8.944271909999162e-01 2.815444468013882e-18
4.427053556203387e-01 8.964350488875688e-01 2.040027526803859e-02
4.384753984894453e-01 8.979070933892510e-01 3.875792255512374e-02
4.345775253283498e-01 8.989492168008633e-01 5.506977476440372e-02
4.310589111165065e-01 8.996558924587494e-01 6.933606789617766e-02
4.279603136594811e-01 9.001100153718806e-01 8.155936586138814e-02
4.279603136594811e-01 9.001100153718804e-01 8.155936586138808e-02
4.253174335446323e-01 9.003826997660110e-01 9.173916658154559e-02
4.231588265147830e-01 9.005335062338694e-01 9.987998644756341e-02
4.215071436497092e-01 9.006101476501462e-01 1.059862717612307e-01
4.203792722582397e-01 9.006484663528924e-01 1.100618349466118e-01
4.197864402101625e-01 9.006724242072668e-01 1.121094504860524e-01
4.197864402101628e-01 9.006724242072669e-01 1.121094504860524e-01
4.197206242253745e-01 9.006794447955200e-01 1.122993113188862e-01
4.196773774475243e-01 9.006840537862636e-01 1.124239036589252e-01
4.196567113595234e-01 9.006862758196477e-01 1.124832305770219e-01
4.196586314306459e-01 9.006861226332540e-01 1.124772935379965e-01
4.196831371180018e-01 9.006835930619408e-01 1.124060923963854e-01
4.196831371180015e-01 9.006835930619411e-01 1.124060923963854e-01
4.196831371180878e-01 9.006835930618929e-01 1.124060923964493e-01
4.196831371181544e-01 9.006835930618557e-01 1.124060923964992e-01
4.196831371182025e-01 9.006835930618290e-01 1.124060923965349e-01
4.196831371182320e-01 9.006835930618124e-01 1.124060923965566e-01
4.196831371182421e-01 9.006835930618069e-01 1.124060923965642e-01
        </DataArray>
        <DataArray type="Float64" Name="base_vector_2" NumberOfComponents="3" format="ascii">
-8.944271909999162e-01 4.472135954999578e-01 2.338539129268369e-18
-8.966211872154526e-01 4.427984237903140e-01 -5.025103082187399e-05
-8.985791536741627e-01 4.388114305198567e-01 -1.817342626333068e-04
-9.003065564341430e-01 4.352562112469319e-01 -3.674406911757036e-04
-9.018085913339431e-01 4.321353078704111e-01 -5.833421247884336e-04
-9.030900660662677e-01 4.294504384186001e-01 -8.084024348310251e-04
-9.030900660662675e-01 4.294504384186001e-01 -8.084024348310043e-04
-9.041548316868407e-01 4.272036873810737e-01 -1.024609854685422e-03
-9.050066301237459e-01 4.253957196636945e-01 -1.217014325769865e-03
-9.056485610454663e-01 4.240268827452758e-01 -1.373530342101095e-03
-9.060830190557232e-01 4.230973377161376e-01 -1.485057703396714e-03
-9.063116518422396e-01 4.226071476543126e-01 -1.545472897521126e-03
-9.063116518422397e-01 4.226071476543128e-01 -1.545472897521091e-03
-9.063378122763681e-01 4.225510145389468e-01 -1.552465843087221e-03
-9.063549990756005e-01 4.225141313527311e-01 -1.557067087702702e-03
-9.063632150131733e-01 4.224964983906142e-01 -1.559268627966869e-03
-9.063624614148017e-01 4.224981157937840e-01 -1.559066645325721e-03
-9.063527381580943e-01 4.225189835509238e-01 -1.556461505915117e-03
-9.063527381580946e-01 4.225189835509235e-01 -1.556461505915131e-03
-9.063527381580528e-01 4.225189835510130e-01 -1.556461505909899e-03
-9.063527381580208e-01 4.225189835510821e-01 -1.556461505905854e-03
-9.063527381579976e-01 4.225189835511319e-01 -1.556461505902933e-03
-9.063527381579832e-01 4.225189835511626e-01 -1.556461505901142e-03
-9.063527381579783e-01 4.225189835511730e-01 -1.556461505900504e-03
        </DataArray>
        <DataArray type="Float64" Name="base_vector_3" NumberOfComponents="3" format="ascii">
8.325479409639424e-19 -3.564036579159357e-18 1.000000000000000e+00
-9.078256518847468e-03 -1.826907262988050e-02 9.997918914673304e-01
-1.717059992392198e-02 -3.474737524452452e-02 9.992486129146584e-01
-2.429977203972943e-02 -4.941999781546810e-02 9.984824409546401e-01
-3.048737022672380e-02 -6.227640689696690e-02 9.975931883291215e-01
-3.575335655435857e-02 -7.330948894451053e-02 9.966681575759264e-01
-3.575335655435852e-02 -7.330948894451049e-02 9.966681575759264e-01
-4.011385122807136e-02 -8.251062628584904e-02 9.957825442784027e-01
-4.358448089278368e-02 -8.987705959777031e-02 9.949987473275358e-01
-4.617804379290991e-02 -9.540736165991702e-02 9.943666444589511e-01
-4.790438429307419e-02 -9.910087221462335e-02 9.939236324244446e-01
-4.877021991615998e-02 -1.009573326910483e-01 9.936946626732169e-01
-4.877021991616000e-02 -1.009573326910483e-01 9.936946626732169e-01
-4.885046200343623e-02 -1.011295102081530e-01 9.936732131476173e-01
-4.890311349430314e-02 -1.012425012649836e-01 9.936591173174899e-01
-4.892818289998169e-02 -1.012963049563189e-01 9.936523997456567e-01
-4.892567428109316e-02 -1.012909208496871e-01 9.936530721280757e-01
-4.889558724586219e-02 -1.012263489815098e-01 9.936611332943217e-01
-4.889558724586223e-02 -1.012263489815098e-01 9.936611332943217e-01
-4.889558724589448e-02 -1.012263489815651e-01 9.936611332943145e-01
-4.889558724591963e-02 -1.012263489816082e-01 9.936611332943089e-01
-4.889558724593768e-02 -1.012263489816392e-01 9.936611332943048e-01
-4.889558724594861e-02 -1.012263489816579e-01 9.936611332943024e-01
-4.889558724595243e-02 -1.012263489816645e-01 9.936611332943016e-01
        </DataArray>
        <DataArray type="Float64" Name="displacement" NumberOfComponents="3" format="ascii">
0.000000000000000e+00 0.000000000000000e+00 -1.750000000000000e-01
-2.588997998993481e-04 1.104661235540316e-04 -1.738371773056097e-01
-1.007636318079597e-03 4.127577282843076e-04 -1.705077093078529e-01
-2.206670514130871e-03 8.636904088761277e-04 -1.652402104354627e-01
-3.816463347643129e-03 1.420079760015014e-03 -1.582632951171724e-01
-5.797475778206551e-03 2.038741376386211e-03 -1.498055777817153e-01
-5.797475778206551e-03 2.038741376386211e-03 -1.498055777817153e-01
-8.104525967065845e-03 2.687688275141098e-03 -1.400958210200151e-01
-1.068049280775607e-02 3.359253646845473e-03 -1.293619864452150e-01
-1.346792835830304e-02 4.046733346306175e-03 -1.178314870193769e-01
-1.640938467673263e-02 4.743423228330115e-03 -1.057317357045629e-01
-1.944741382107059e-02 5.442619147724250e-03 -9.329014546283493e-02
-1.944741382107059e-02 5.442619147724250e-03 -9.329014546283493e-02
-2.251828985121792e-02 6.141251337834969e-03 -8.074285871728719e-02
-2.559496798292231e-02 6.840540745671586e-03 -6.817903592684477e-02
-2.867502200797950e-02 7.540219296535422e-03 -5.560561710731600e-02
-3.175602571818520e-02 8.240018915727787e-03 -4.302954227450920e-02
-3.483555290533535e-02 8.939671528549908e-03 -3.045775144423267e-02
-3.483555290533535e-02 8.939671528549908e-03 -3.045775144423267e-02
-3.791353818712129e-02 9.639160532073032e-03 -1.789040291752483e-02
-4.099153166615782e-02 1.033864833169029e-02 -5.323033405554428e-03
-4.406953036162553e-02 1.103813536518505e-02 7.244349460674714e-03
-4.714753129270505e-02 1.173762207034035e-02 1.981173805015878e-02
-5.022553147857706e-02 1.243710888494021e-02 3.237912473189394e-02
        </DataArray>
  </PointData>
  <CellData>
        <DataArray type="Float64" Name="axial_strain_GPs" NumberOfComponents="3" format="ascii">
-1.938392934164312e-06 -1.127240663478801e-06 -5.327532645038602e-07
-5.327532647259048e-07 -1.577434957100721e-07 -3.917067172842792e-07
-3.917067170622346e-07 -1.005520676722327e-07 4.402443409823320e-08
4.402443432027781e-08 1.865174681370263e-14 1.931788062847772e-14
        </DataArray>
        <DataArray type="Float64" Name="cross_section_radius" format="ascii">
2.000000000000000e-02
2.000000000000000e-02
2.000000000000000e-02
2.000000000000000e-02
        </DataArray>
        <DataArray type="Float64" Name="curvature_2_GPs" NumberOfComponents="3" format="ascii">
-1.813228571186846e-01 -1.460696390427376e-01 -1.108164199887022e-01
-9.025688194857584e-02 -5.492576021721359e-02 -1.959463750512829e-02
-1.672501744710033e-03 -5.342986486895465e-04 6.039044473349499e-04
-5.657259058694848e-13 -3.210289040271711e-13 -7.633190218485740e-14
        </DataArray>
        <DataArray type="Float64" Name="curvature_3_GPs" NumberOfComponents="3" format="ascii">
4.382409207484123e-02 3.539306118208931e-02 2.696203437909283e-02
2.204492089946936e-02 1.359498379524263e-02 5.145050791648132e-03
5.452960828911935e-04 1.751044860350641e-04 -1.950871108087352e-04
-8.671625595225886e-13 -4.922966078839318e-13 -1.174306562452749e-13
        </DataArray>
        <DataArray type="Float64" Name="element_owner" format="ascii">
0.000000000000000e+00
0.000000000000000e+00
0.000000000000000e+00
0.000000000000000e+00
        </DataArray>
        <DataArray type="Float64" Name="shear_strain_2_GPs" NumberOfComponents="3" format="ascii">
7.048409755572305e-06 7.080221560796097e-06 7.092892529797864e-06
7.092892529910594e-06 7.096104237343720e-06 5.687310138644382e-06
5.687310138759280e-06 3.108802934514976e-07 -1.400240858775341e-07
-1.400240861010966e-07 2.498083120569539e-15 2.681584338262710e-15
        </DataArray>
        <DataArray type="Float64" Name="shear_strain_3_GPs" NumberOfComponents="3" format="ascii">
2.947346111531459e-05 2.960499846916403e-05 2.965712815704291e-05
2.965712815711230e-05 2.967044405845221e-05 2.244555887337407e-05
2.244555887334632e-05 9.558426354305816e-07 -4.345068258249096e-07
-4.345068258942986e-07 4.496403249731884e-15 4.732325642464730e-15
        </DataArray>
        <DataArray type="Float64" Name="twist_GPs" NumberOfComponents="3" format="ascii">
3.897726813848574e-07 -4.871450991666951e-07 3.898482559202025e-07
3.898649463652355e-07 -4.873440812049991e-07 3.898934789741960e-07
3.626884081055772e-11 -4.553300310167819e-11 3.630055822773522e-11
-5.189186780513591e-14 -2.939320437444771e-14 -6.894540943759545e-15
        </DataArray>
      </CellData>

    </Piece>
  </UnstructuredGrid>
</VTKFile>
