<?xml version="1.0" ?> 
<!-- 
# vtk DataFile Version 3.0
-->
<VTKFile type="UnstructuredGrid" version="0.1" compressor="vtkZLibDataCompressor" byte_order="LittleEndian">
  <UnstructuredGrid>
    <FieldData>
      <DataArray type="Float64" Name="TIME" NumberOfTuples="1" format="ascii">
4.999999999999999e-01 
      </DataArray>
    </FieldData>

    <Piece NumberOfPoints="24" NumberOfCells="4" >
      <Points>
        <DataArray type="Float64" NumberOfComponents="3" format="ascii">
5.000000000000000e-01 -1.000000000000000e+00 2.040000000000000e-02
4.504922814598565e-01 -8.997878277079739e-01 1.887610958080703e-02
4.019186129501018e-01 -7.992058025824278e-01 1.450370712522929e-02
3.542075868113609e-01 -6.983347994821546e-01 7.569411433730367e-03
3.072877953842593e-01 -5.972556932659469e-01 -1.640158693226171e-03
2.610878310094222e-01 -4.960493587925972e-01 -1.283838445517674e-02
2.610878310094222e-01 -4.960493587925972e-01 -1.283838445517674e-02
2.155263178959109e-01 -3.947772481796274e-01 -2.573800334667232e-02
1.705005895096351e-01 -2.934567103577021e-01 -4.005368390530149e-02
1.259073020764918e-01 -1.921024654053280e-01 -5.550170389515708e-02
8.164311182237846e-02 -9.072923340101201e-02 -7.179834108033190e-02
3.760467497319235e-02 1.064826557673902e-02 -8.865987322491878e-02
3.760467497319235e-02 1.064826557673902e-02 -8.865987322491878e-02
-6.335548459140796e-03 1.120238204620769e-01 -1.057550995431891e-01
-5.024463712675638e-02 2.134006898322841e-01 -1.229223836952608e-01
-9.413524279984892e-02 3.147783580735500e-01 -1.401323501139967e-01
-1.380200172486129e-01 4.161563095720642e-01 -1.573556232322595e-01
-1.819116122432428e-01 5.175340287140159e-01 -1.745628274829119e-01
-1.819116122432428e-01 5.175340287140159e-01 -1.745628274829119e-01
-2.258108135495264e-01 6.189114605556645e-01 -1.917522553095024e-01
-2.697099806999880e-01 7.202888936034203e-01 -2.089417634073141e-01
-3.136091261149264e-01 8.216663274186986e-01 -2.261313225868120e-01
-3.575082622146407e-01 9.230437615629156e-01 -2.433209036584612e-01
-4.014074014194296e-01 1.024421195597486e+00 -2.605104774327267e-01
        </DataArray>
      </Points>

      <Cells>
        <DataArray type="Int32" Name="connectivity" format="ascii">
0 1 2 3 4 5 6 7 8 9 10 11 12 13 14 15 16 17 18 19 20 21 22 23 
        </DataArray>
        <DataArray type="Int32" Name="offsets" format="ascii">
6 12 18 24 
        </DataArray>
        <DataArray type="UInt8" Name="types" format="ascii">
4 4 4 4 
        </DataArray>
      </Cells>

  <PointData>
        <DataArray type="Float64" Name="base_vector_1" NumberOfComponents="3" format="ascii">
-4.472135954999581e-01 8.944271909999161e-01 1.139997627805570e-18
-4.386279437417653e-01 8.982703575572225e-01 -2.675615261750604e-02
-4.305476571743876e-01 9.011283568479203e-01 -5.095487598076033e-02
-4.230681675531709e-01 9.031856436257750e-01 -7.258800693983548e-02
-4.162726558615115e-01 9.046084095516567e-01 -9.165533999951324e-02
-4.102327148745375e-01 9.055440597339002e-01 -1.081622648029984e-01
-4.102327148745375e-01 9.055440597339004e-01 -1.081622648029984e-01
-4.050131860873163e-01 9.061204762849874e-01 -1.221065172399481e-01
-4.006647064336875e-01 9.064469128209147e-01 -1.334982668645595e-01
-3.972278053529208e-01 9.066129401006376e-01 -1.423483315553118e-01
-3.947335416995561e-01 9.066883270951622e-01 -1.486664338938079e-01
-3.932038659825403e-01 9.067230001683487e-01 -1.524602267546998e-01
-3.932038659825396e-01 9.067230001683483e-01 -1.524602267546997e-01
-3.928630201259489e-01 9.067373841724004e-01 -1.532513085154943e-01
-3.926366536715236e-01 9.067466730878725e-01 -1.537755801084874e-01
-3.925249621257039e-01 9.067513180403862e-01 -1.540331176735600e-01
-3.925280415254917e-01 9.067515407939563e-01 -1.540239587984553e-01
-3.926458885790298e-01 9.067473337452455e-01 -1.537481021927493e-01
-3.926458885790303e-01 9.067473337452457e-01 -1.537481021927494e-01
-3.926458885790303e-01 9.067473337452457e-01 -1.537481021927494e-01
-3.926458885790303e-01 9.067473337452457e-01 -1.537481021927494e-01
-3.926458885790303e-01 9.067473337452457e-01 -1.537481021927494e-01
-3.926458885790303e-01 9.067473337452457e-01 -1.537481021927494e-01
-3.926458885790303e-01 9.067473337452457e-01 -1.537481021927494e-01
        </DataArray>
        <DataArray type="Float64" Name="base_vector_2" NumberOfComponents="3" format="ascii">
-8.944271909999161e-01 -4.472135954999581e-01 -1.844554908883664e-18
-8.985905792065955e-01 -4.387880526673220e-01 -1.256884070688497e-04
-9.022903485141562e-01 -4.311286566224655e-01 -4.565272306944201e-04
-9.055455061585502e-01 -4.242481297425211e-01 -9.277316579253819e-04
-9.083741898793531e-01 -4.181556371755633e-01 -1.481303253245088e-03
-9.107932813052688e-01 -4.128575178276446e-01 -2.066083826598161e-03
-9.107932813052690e-01 -4.128575178276446e-01 -2.066083826598161e-03
-9.128164620939155e-01 -4.083615435651407e-01 -2.637473685996518e-03
-9.144571311893261e-01 -4.046704610377010e-01 -3.158034281483646e-03
-9.157266557670188e-01 -4.017857057488914e-01 -3.597022882636400e-03
-9.166341029492671e-01 -3.997079837570829e-01 -3.930525568046961e-03
-9.171860990756794e-01 -3.984375839688388e-01 -4.141418043850056e-03
-9.171860990756789e-01 -3.984375839688381e-01 -4.141418043850029e-03
-9.173099337281364e-01 -3.981518967842894e-01 -4.189578827846929e-03
-9.173920774046386e-01 -3.979622515770116e-01 -4.221686269248265e-03
-9.174326020255826e-01 -3.978686513316023e-01 -4.237573378776310e-03
-9.174315430998817e-01 -3.978710974900916e-01 -4.237157938984118e-03
-9.173888996739515e-01 -3.979695900697096e-01 -4.220442484334952e-03
-9.173888996739518e-01 -3.979695900697100e-01 -4.220442484334938e-03
-9.173888996739518e-01 -3.979695900697100e-01 -4.220442484334952e-03
-9.173888996739518e-01 -3.979695900697100e-01 -4.220442484334952e-03
-9.173888996739518e-01 -3.979695900697100e-01 -4.220442484334952e-03
-9.173888996739518e-01 -3.979695900697100e-01 -4.220442484334966e-03
-9.173888996739518e-01 -3.979695900697100e-01 -4.220442484334994e-03
        </DataArray>
        <DataArray type="Float64" Name="base_vector_3" NumberOfComponents="3" format="ascii">
-1.139997627805570e-18 -1.844554908883664e-18 1.000000000000000e+00
-1.185318227426367e-02 2.398769623036003e-02 9.996419821613801e-01
-2.237949686320150e-02 4.577953607756403e-02 9.987008522058409e-01
-3.163324010053765e-02 6.533924975287410e-02 9.973615796502657e-01
-3.966619647802107e-02 8.264071918080987e-02 9.957896888350700e-01
-4.652653410527052e-02 9.766588889598853e-02 9.941311059263298e-01
-4.652653410527052e-02 9.766588889598855e-02 9.941311059263298e-01
-5.225347477201288e-02 1.103926274447922e-01 9.925134972281666e-01
-5.688539562484875e-02 1.208131292574140e-01 9.910440149476893e-01
-6.045463234736433e-02 1.289233241036866e-01 9.898100898302667e-01
-6.298692219594679e-02 1.347212129927012e-01 9.888795894354666e-01
-6.450100339315483e-02 1.382059790558449e-01 9.883009298358935e-01
-6.450100339315477e-02 1.382059790558448e-01 9.883009298358935e-01
-6.481614691726437e-02 1.389330170667346e-01 9.881783664235592e-01
-6.502487607699647e-02 1.394149101202201e-01 9.880967808506119e-01
-6.512737403567964e-02 1.396516506153579e-01 9.880565983948605e-01
-6.512373101667122e-02 1.396432348873958e-01 9.880580279561783e-01
-6.501394417354014e-02 1.393896629081062e-01 9.881010621071937e-01
-6.501394417354014e-02 1.393896629081062e-01 9.881010621071937e-01
-6.501394417354017e-02 1.393896629081063e-01 9.881010621071937e-01
-6.501394417354017e-02 1.393896629081063e-01 9.881010621071937e-01
-6.501394417354017e-02 1.393896629081063e-01 9.881010621071937e-01
-6.501394417354019e-02 1.393896629081062e-01 9.881010621071937e-01
-6.501394417354023e-02 1.393896629081062e-01 9.881010621071937e-01
        </DataArray>
        <DataArray type="Float64" Name="displacement" NumberOfComponents="3" format="ascii">
0.000000000000000e+00 0.000000000000000e+00 0.000000000000000e+00
4.922814598565250e-04 2.121722920259694e-04 -1.523890419192975e-03
1.918612950101817e-03 7.941974175722510e-04 -5.896292874770715e-03
4.207586811360964e-03 1.665200517845355e-03 -1.283058856626964e-02
7.287795384259277e-03 2.744306734053237e-03 -2.204015869322617e-02
1.108783100942218e-02 3.950641207402794e-03 -3.323838445517674e-02
1.108783100942218e-02 3.950641207402794e-03 -3.323838445517674e-02
1.552631789591091e-02 5.222751820372518e-03 -4.613800334667233e-02
2.050058950963507e-02 6.543289642297889e-03 -6.045368390530149e-02
2.590730207649181e-02 7.897534594671990e-03 -7.590170389515707e-02
3.164311182237849e-02 9.270766598987970e-03 -9.219834108033190e-02
3.760467497319235e-02 1.064826557673902e-02 -1.090598732249188e-01
3.760467497319235e-02 1.064826557673902e-02 -1.090598732249188e-01
4.366445154085920e-02 1.202382046207688e-02 -1.261550995431891e-01
4.975536287324363e-02 1.340068983228404e-02 -1.433223836952608e-01
5.586475720015108e-02 1.477835807355010e-02 -1.605323501139967e-01
6.197998275138711e-02 1.615630957206421e-02 -1.777556232322595e-01
6.808838775675724e-02 1.753402871401588e-02 -1.949628274829119e-01
6.808838775675724e-02 1.753402871401588e-02 -1.949628274829119e-01
7.418918645047354e-02 1.891146055566439e-02 -2.121522553095024e-01
8.029001930001201e-02 2.028889360342034e-02 -2.293417634073141e-01
8.639087388507355e-02 2.166632741869867e-02 -2.465313225868120e-01
9.249173778535935e-02 2.304376156291565e-02 -2.637209036584612e-01
9.859259858057040e-02 2.442119559748623e-02 -2.809104774327267e-01
        </DataArray>
  </PointData>
  <CellData>
        <DataArray type="Float64" Name="axial_strain_GPs" NumberOfComponents="3" format="ascii">
-3.514854133634948e-06 -2.103068524550444e-06 -1.045406105348867e-06
-1.045406105237845e-06 -3.499011049790113e-07 -1.810552907599572e-08
-1.810552974212953e-08 1.637628255224399e-09 -4.886677729132316e-10
-4.886672178017193e-10 0.000000000000000e+00 -1.110223024625157e-16
        </DataArray>
        <DataArray type="Float64" Name="cross_section_radius" format="ascii">
2.000000000000000e-02
2.000000000000000e-02
2.000000000000000e-02
2.000000000000000e-02
        </DataArray>
        <DataArray type="Float64" Name="curvature_2_GPs" NumberOfComponents="3" format="ascii">
2.379036929505520e-01 1.939130737398166e-01 1.499224519349840e-01
1.242130451671615e-01 8.001893961074870e-02 3.582483144684951e-02
7.018151953011122e-03 2.335234870753179e-03 -2.347682212021205e-03
1.129352783250903e-16 7.447602459741819e-17 3.601677086974610e-17
        </DataArray>
        <DataArray type="Float64" Name="curvature_3_GPs" NumberOfComponents="3" format="ascii">
-8.356565259224866e-02 -6.821278195056074e-02 -5.285991874176850e-02
-4.388692195941374e-02 -2.846231597916190e-02 -1.303771746980996e-02
-2.757939387234282e-03 -9.232833221971208e-04 9.113727415218399e-04
-1.398928667159171e-18 -6.206335383118182e-18 -1.101374209907720e-17
        </DataArray>
        <DataArray type="Float64" Name="element_owner" format="ascii">
1.000000000000000e+00
1.000000000000000e+00
1.000000000000000e+00
1.000000000000000e+00
        </DataArray>
        <DataArray type="Float64" Name="shear_strain_2_GPs" NumberOfComponents="3" format="ascii">
-1.278148830646808e-05 -1.289304243286792e-05 -1.293968784135945e-05
-1.293968784124843e-05 -1.295330289307294e-05 -1.237688513082002e-05
-1.237688513043567e-05 -1.540711525817068e-06 6.398282050873883e-07
6.398282047522614e-07 -4.910351639186850e-16 -3.724234462487708e-16
        </DataArray>
        <DataArray type="Float64" Name="shear_strain_3_GPs" NumberOfComponents="3" format="ascii">
-3.662501218450000e-05 -3.694247689356445e-05 -3.707492363111409e-05
-3.707492363108633e-05 -3.711341407561242e-05 -3.475294487473302e-05
-3.475294487478853e-05 -3.932630460834474e-06 1.654051292265812e-06
1.654051292293568e-06 3.330669073875470e-16 0.000000000000000e+00
        </DataArray>
        <DataArray type="Float64" Name="twist_GPs" NumberOfComponents="3" format="ascii">
5.677989867627475e-07 -7.095394867480285e-07 5.679925293062844e-07
5.678514244781586e-07 -7.098320886190497e-07 5.679317746783120e-07
9.455656393615097e-10 -1.181957488965128e-09 9.455658640168929e-10
-2.238285867454673e-17 -9.930136612989092e-17 -1.762198735852351e-16
        </DataArray>
      </CellData>

    </Piece>
  </UnstructuredGrid>
</VTKFile>
