<?xml version="1.0" ?> 
<!-- 
# vtk DataFile Version 3.0
-->
<VTKFile type="UnstructuredGrid" version="0.1" compressor="vtkZLibDataCompressor" byte_order="LittleEndian">
  <UnstructuredGrid>
    <FieldData>
      <DataArray type="Float64" Name="TIME" NumberOfTuples="1" format="ascii">
3.000000700000000e-01 
      </DataArray>
    </FieldData>

    <Piece NumberOfPoints="24" NumberOfCells="4" >
      <Points>
        <DataArray type="Float64" NumberOfComponents="3" format="ascii">
5.000000000000000e-01 -1.000000000000000e+00 2.040000000000000e-02
4.502589036773258e-01 -8.998895319234204e-01 1.923717840899029e-02
4.010076512851297e-01 -7.995872347516833e-01 1.590771366425203e-02
3.522067029847767e-01 -6.991362932721773e-01 1.064022010883361e-02
3.038165189376320e-01 -5.985798922722912e-01 3.663312085783423e-03
2.557975593050607e-01 -4.979612165394141e-01 -4.794396061850139e-03
2.557975593050607e-01 -4.979612165394141e-01 -4.794396061850139e-03
2.081046429636568e-01 -3.973122562595919e-01 -1.450414186452404e-02
1.606806474911585e-01 -2.966406773077361e-01 -2.523796439259371e-02
1.134681211006464e-01 -1.959531780045325e-01 -3.676845161285844e-02
6.640961200520157e-02 -9.525645667066703e-02 -4.886819149211755e-02
1.944766841790472e-02 5.442788373174360e-03 -6.130977199717033e-02
1.944766841790472e-02 5.442788373174360e-03 -6.130977199717033e-02
-2.748161258350656e-02 1.061414750060208e-01 -7.385635650529573e-02
-7.440537560311100e-02 2.068408086487469e-01 -8.641837766340101e-02
-1.213259349505523e-01 3.075405222934350e-01 -9.898932734272792e-02
-1.682456049354741e-01 4.082403489321677e-01 -1.115626974145183e-01
-2.151666998675202e-01 5.089400215570270e-01 -1.241319797500138e-01
-2.151666998675202e-01 5.089400215570270e-01 -1.241319797500138e-01
-2.620892743415873e-01 6.096395286420035e-01 -1.366970613995157e-01
-3.090118417840967e-01 7.103390364830711e-01 -1.492621632649889e-01
-3.559344047519786e-01 8.110385448052876e-01 -1.618272779951708e-01
-4.028569658021630e-01 9.117380533337108e-01 -1.743923982387989e-01
-4.497795274915802e-01 1.012437561793398e+00 -1.869575166446107e-01
        </DataArray>
      </Points>

      <Cells>
        <DataArray type="Int32" Name="connectivity" format="ascii">
0 1 2 3 4 5 6 7 8 9 10 11 12 13 14 15 16 17 18 19 20 21 22 23 
        </DataArray>
        <DataArray type="Int32" Name="offsets" format="ascii">
6 12 18 24 
        </DataArray>
        <DataArray type="UInt8" Name="types" format="ascii">
4 4 4 4 
        </DataArray>
      </Cells>

  <PointData>
        <DataArray type="Float64" Name="base_vector_1" NumberOfComponents="3" format="ascii">
-4.472135954999581e-01 8.944271909999161e-01 7.124985173784814e-20
-4.427052875625381e-01 8.964350829444050e-01 -2.040025565106411e-02
-4.384752694809764e-01 8.979071580479865e-01 -3.875788409825280e-02
-4.345773425072819e-01 8.989493086437458e-01 -5.506971825096225e-02
-4.310586816342530e-01 8.996560080987073e-01 -6.933599411300526e-02
-4.279600446670249e-01 9.001101514441584e-01 -8.155927559617343e-02
-4.279600446670249e-01 9.001101514441585e-01 -8.155927559617342e-02
-4.253171265243227e-01 9.003828537859746e-01 -9.173907833261845e-02
-4.231584933155701e-01 9.005336738182738e-01 -9.987988713579625e-02
-4.215067962642189e-01 9.006103247594713e-01 -1.059861483388957e-01
-4.203789227402510e-01 9.006486491124319e-01 -1.100616743816757e-01
-4.197861005948302e-01 9.006726087274129e-01 -1.121092397420669e-01
-4.197861005948307e-01 9.006726087274129e-01 -1.121092397420669e-01
-4.197233589243059e-01 9.006796510405523e-01 -1.122874355160333e-01
-4.196821866323153e-01 9.006842736219843e-01 -1.124041879716088e-01
-4.196625938844147e-01 9.006864982849683e-01 -1.124594998271282e-01
-4.196645854984624e-01 9.006863353689826e-01 -1.124533723727202e-01
-4.196881609458671e-01 9.006837837395876e-01 -1.123858054667818e-01
-4.196881609458669e-01 9.006837837395875e-01 -1.123858054667818e-01
-4.196881609458725e-01 9.006837837395875e-01 -1.123858054667599e-01
-4.196881609458771e-01 9.006837837395876e-01 -1.123858054667427e-01
-4.196881609458800e-01 9.006837837395876e-01 -1.123858054667305e-01
-4.196881609458820e-01 9.006837837395876e-01 -1.123858054667230e-01
-4.196881609458829e-01 9.006837837395875e-01 -1.123858054667204e-01
        </DataArray>
        <DataArray type="Float64" Name="base_vector_2" NumberOfComponents="3" format="ascii">
-8.944271909999161e-01 -4.472135954999581e-01 -1.152846818052290e-19
-8.966212209143045e-01 -4.427983555535220e-01 -5.025175879422653e-05
-8.985792169991722e-01 -4.388113008445218e-01 -1.817368799064238e-04
-9.003066454909147e-01 -4.352560270327899e-01 -3.674459522495753e-04
-9.018087023914843e-01 -4.321350760968958e-01 -5.833504244410967e-04
-9.030901955401179e-01 -4.294501661268164e-01 -8.084138553784773e-04
-9.030901955401180e-01 -4.294501661268164e-01 -8.084138553784634e-04
-9.041549784465592e-01 -4.272033767358339e-01 -1.024624713610062e-03
-9.050067888090981e-01 -4.253953820188534e-01 -1.217031831249014e-03
-9.056487264143444e-01 -4.240265294837671e-01 -1.373549427054650e-03
-9.060831859481349e-01 -4.230969802397806e-01 -1.485077121482478e-03
-9.063118151431274e-01 -4.226067973761820e-01 -1.545491318874957e-03
-9.063118151431274e-01 -4.226067973761825e-01 -1.545491318874943e-03
-9.063368175178420e-01 -4.225531492800618e-01 -1.552174323844233e-03
-9.063532228724128e-01 -4.225179433964898e-01 -1.556565703991319e-03
-9.063610337364474e-01 -4.225011800085225e-01 -1.558658270895311e-03
-9.063602513142311e-01 -4.225028592513114e-01 -1.558448610423459e-03
-9.063508754842344e-01 -4.225229811131679e-01 -1.555937082598852e-03
-9.063508754842343e-01 -4.225229811131677e-01 -1.555937082598866e-03
-9.063508754842321e-01 -4.225229811131721e-01 -1.555937082598345e-03
-9.063508754842304e-01 -4.225229811131761e-01 -1.555937082597929e-03
-9.063508754842291e-01 -4.225229811131783e-01 -1.555937082597658e-03
-9.063508754842284e-01 -4.225229811131799e-01 -1.555937082597492e-03
-9.063508754842281e-01 -4.225229811131805e-01 -1.555937082597429e-03
        </DataArray>
        <DataArray type="Float64" Name="base_vector_3" NumberOfComponents="3" format="ascii">
-7.124985173784814e-20 -1.152846818052290e-19 1.000000000000000e+00
-9.078247094725433e-03 1.826905540949352e-02 9.997918918675686e-01
-1.717058038448480e-02 3.474734201816107e-02 9.992486144058109e-01
-2.429974206046764e-02 4.941994962120995e-02 9.984824440696149e-01
-3.048732980645280e-02 6.227634461518249e-02 9.975931934524431e-01
-3.575330597175376e-02 7.330941331660140e-02 9.966681649532435e-01
-3.575330597175372e-02 7.330941331660140e-02 9.966681649532435e-01
-4.011379856602761e-02 8.251055395357738e-02 9.957825523932813e-01
-4.358442089028046e-02 8.987697856735369e-02 9.949987572752351e-01
-4.617797144906651e-02 9.540725984217427e-02 9.943666575877618e-01
-4.790429477431195e-02 9.910073745401990e-02 9.939236501755280e-01
-4.877010846161013e-02 1.009571527906950e-01 9.936946864208538e-01
-4.877010846161017e-02 1.009571527906950e-01 9.936946864208538e-01
-4.884542133023589e-02 1.011187531320016e-01 9.936745556670459e-01
-4.889476058136091e-02 1.012246351341362e-01 9.936613485638115e-01
-4.891813384016544e-02 1.012747979438564e-01 9.936550867796263e-01
-4.891554472770987e-02 1.012692411547575e-01 9.936557805799405e-01
-4.888699285944500e-02 1.012079648040751e-01 9.936634288275773e-01
-4.888699285944501e-02 1.012079648040751e-01 9.936634288275773e-01
-4.888699285943577e-02 1.012079648040552e-01 9.936634288275797e-01
-4.888699285942858e-02 1.012079648040396e-01 9.936634288275816e-01
-4.888699285942345e-02 1.012079648040285e-01 9.936634288275831e-01
-4.888699285942032e-02 1.012079648040217e-01 9.936634288275839e-01
-4.888699285941921e-02 1.012079648040193e-01 9.936634288275842e-01
        </DataArray>
        <DataArray type="Float64" Name="displacement" NumberOfComponents="3" format="ascii">
0.000000000000000e+00 0.000000000000000e+00 0.000000000000000e+00
2.589036773257836e-04 1.104680765795507e-04 -1.162821591009715e-03
1.007651285129751e-03 4.127652483167932e-04 -4.492286335747973e-03
2.206702984776765e-03 8.637067278226551e-04 -9.759779891166390e-03
3.816518937632019e-03 1.420107727708841e-03 -1.673668791421657e-02
5.797559305060707e-03 2.038783460585947e-03 -2.519439606185014e-02
5.797559305060707e-03 2.038783460585947e-03 -2.519439606185014e-02
8.104642963656816e-03 2.687743740408033e-03 -3.490414186452404e-02
1.068064749115849e-02 3.359322692263911e-03 -4.563796439259371e-02
1.346812110064644e-02 4.046821995467464e-03 -5.716845161285844e-02
1.640961200520159e-02 4.743543329332953e-03 -6.926819149211755e-02
1.944766841790472e-02 5.442788373174360e-03 -8.170977199717033e-02
1.944766841790472e-02 5.442788373174360e-03 -8.170977199717033e-02
2.251838741649344e-02 6.141475006020816e-03 -9.425635650529574e-02
2.559462439688900e-02 6.840808648746866e-03 -1.068183776634010e-01
2.867406504944772e-02 7.540522293435103e-03 -1.193893273427279e-01
3.175439506452588e-02 8.240348932167629e-03 -1.319626974145182e-01
3.483330013247984e-02 8.940021557027000e-03 -1.445319797500138e-01
3.483330013247984e-02 8.940021557027000e-03 -1.445319797500138e-01
3.791072565841264e-02 9.639528642003459e-03 -1.570970613995157e-01
4.098815821590335e-02 1.033903648307111e-02 -1.696621632649889e-01
4.406559524802139e-02 1.103854480528765e-02 -1.822272779951708e-01
4.714303419783700e-02 1.173805333371092e-02 -1.947923982387989e-01
5.022047250841977e-02 1.243756179339828e-02 -2.073575166446107e-01
        </DataArray>
  </PointData>
  <CellData>
        <DataArray type="Float64" Name="axial_strain_GPs" NumberOfComponents="3" format="ascii">
-1.938264531542444e-06 -1.127111771470624e-06 -5.327059686699442e-07
-5.327059685589219e-07 -1.574402098691863e-07 -1.580145125856802e-09
-1.580144903812197e-09 1.146915895589018e-10 -3.913824819790079e-11
-3.913847024250572e-11 6.661338147750939e-15 5.995204332975845e-15
        </DataArray>
        <DataArray type="Float64" Name="cross_section_radius" format="ascii">
2.000000000000000e-02
2.000000000000000e-02
2.000000000000000e-02
2.000000000000000e-02
        </DataArray>
        <DataArray type="Float64" Name="curvature_2_GPs" NumberOfComponents="3" format="ascii">
1.813226820811432e-01 1.460694773128097e-01 1.108162715663721e-01
9.025689251698640e-02 5.492554322627408e-02 1.959419295491331e-02
1.569650764925270e-03 4.981426822297558e-04 -5.733654004700824e-04
-1.949740567228207e-13 -1.106713725517634e-13 -2.636868838070620e-14
        </DataArray>
        <DataArray type="Float64" Name="curvature_3_GPs" NumberOfComponents="3" format="ascii">
-4.382476834083018e-02 -3.539360104622386e-02 -2.696243784137110e-02
-2.204529121423051e-02 -1.359513628859466e-02 -5.144985463199853e-03
-5.211275986115335e-04 -1.664691225340890e-04 1.881893535302911e-04
4.536470347054547e-14 2.599445996026762e-14 6.624216449989771e-15
        </DataArray>
        <DataArray type="Float64" Name="element_owner" format="ascii">
1.000000000000000e+00
1.000000000000000e+00
1.000000000000000e+00
1.000000000000000e+00
        </DataArray>
        <DataArray type="Float64" Name="shear_strain_2_GPs" NumberOfComponents="3" format="ascii">
-7.048526485808893e-06 -7.080336110104526e-06 -7.092973031449365e-06
-7.092973031394979e-06 -7.096287161009518e-06 -5.708748120089526e-06
-5.708748120479649e-06 -2.978358788505793e-07 1.354055042382992e-07
1.354055044064048e-07 -1.233822072288504e-16 3.442341897641477e-17
        </DataArray>
        <DataArray type="Float64" Name="shear_strain_3_GPs" NumberOfComponents="3" format="ascii">
-2.947346111532821e-05 -2.960498729664973e-05 -2.965700215323830e-05
-2.965700215325218e-05 -2.967063516473578e-05 -2.253645127224535e-05
-2.253645127223147e-05 -8.998334255633234e-07 4.137763052053378e-07
4.137763052330934e-07 1.387778780781446e-17 4.163336342344337e-17
        </DataArray>
        <DataArray type="Float64" Name="twist_GPs" NumberOfComponents="3" format="ascii">
3.897728042450213e-07 -4.871449950422616e-07 3.898483787836732e-07
3.898253910295576e-07 -4.872943908838926e-07 3.898539113466775e-07
4.095443040232083e-11 -5.119517941014751e-11 4.095463906502280e-11
-5.398510500929761e-16 -3.475547814546182e-16 -1.552585128162552e-16
        </DataArray>
      </CellData>

    </Piece>
  </UnstructuredGrid>
</VTKFile>
