<?xml version="1.0" ?> 
<!-- 
# vtk DataFile Version 3.0
-->
<VTKFile type="UnstructuredGrid" version="0.1" compressor="vtkZLibDataCompressor" byte_order="LittleEndian">
  <UnstructuredGrid>
    <FieldData>
      <DataArray type="Float64" Name="TIME" NumberOfTuples="1" format="ascii">
1.000000000000000e+00 
      </DataArray>
    </FieldData>

    <Piece NumberOfPoints="1014" NumberOfCells="46" >
      <Points>
        <DataArray type="Float64" NumberOfComponents="3" format="ascii">
-1.500000000000000e+00 3.000000000000000e+00 5.000000000000000e-01
-1.500000000000000e+00 3.000000000000000e+00 1.666666666665000e-01
-5.000000000000000e-01 3.000000000000000e+00 1.666666666665000e-01
-5.000000000000000e-01 3.000000000000000e+00 5.000000000000000e-01
-1.500000000000000e+00 2.500000000000000e+00 5.000000000000000e-01
-1.500000000000000e+00 2.500000000000000e+00 1.666666666665000e-01
-5.000000000000000e-01 2.583333333332500e+00 1.666666666665000e-01
-5.000000000000000e-01 2.583333333332500e+00 5.000000000000000e-01
-1.500000000000000e+00 3.000000000000000e+00 3.333333333331250e-01
-1.000000000000000e+00 3.000000000000000e+00 1.666666666665000e-01
-5.000000000000000e-01 3.000000000000000e+00 3.333333333331250e-01
-1.000000000000000e+00 3.000000000000000e+00 5.000000000000000e-01
-1.500000000000000e+00 2.500000000000000e+00 3.333333333331250e-01
-1.000000000000000e+00 2.541666666665625e+00 1.666666666665000e-01
-5.000000000000000e-01 2.583333333332500e+00 3.333333333331250e-01
-1.000000000000000e+00 2.541666666665625e+00 5.000000000000000e-01
-1.500000000000000e+00 2.750000000000000e+00 5.000000000000000e-01
-1.500000000000000e+00 2.750000000000000e+00 1.666666666665000e-01
-5.000000000000000e-01 2.791666666665625e+00 1.666666666665000e-01
-5.000000000000000e-01 2.791666666665625e+00 5.000000000000000e-01
-1.000000000000000e+00 2.770833333332031e+00 5.000000000000000e-01
-1.000000000000000e+00 2.770833333332031e+00 1.666666666665001e-01
-1.500000000000000e+00 2.750000000000000e+00 3.333333333331250e-01
-5.000000000000000e-01 2.791666666665625e+00 3.333333333331250e-01
-1.000000000000000e+00 3.000000000000000e+00 3.333333333331250e-01
-1.000000000000000e+00 2.541666666665625e+00 3.333333333331250e-01
-1.000000000000000e+00 2.770833333332031e+00 3.333333333331250e-01
-1.500000000000000e+00 3.000000000000000e+00 1.666666666665000e-01
-1.500000000000000e+00 3.000000000000000e+00 -1.666666666665000e-01
-5.000000000000000e-01 3.000000000000000e+00 -1.666666666665000e-01
-5.000000000000000e-01 3.000000000000000e+00 1.666666666665000e-01
-1.500000000000000e+00 2.500000000000000e+00 1.666666666665000e-01
-1.500000000000000e+00 2.500000000000000e+00 -1.666666666665000e-01
-5.000000000000000e-01 2.583333333332500e+00 -1.666666666665000e-01
-5.000000000000000e-01 2.583333333332500e+00 1.666666666665000e-01
-1.500000000000000e+00 3.000000000000000e+00 -2.775557561562891e-17
-1.000000000000000e+00 3.000000000000000e+00 -1.666666666665000e-01
-5.000000000000001e-01 3.000000000000000e+00 -2.775557561562891e-17
-1.000000000000000e+00 3.000000000000000e+00 1.666666666665000e-01
-1.500000000000000e+00 2.500000000000000e+00 -2.775557561562891e-17
-1.000000000000000e+00 2.541666666665625e+00 -1.666666666665000e-01
-5.000000000000000e-01 2.583333333332500e+00 -3.469446951953614e-17
-1.000000000000000e+00 2.541666666665625e+00 1.666666666665000e-01
-1.500000000000000e+00 2.750000000000000e+00 1.666666666665000e-01
-1.500000000000000e+00 2.750000000000000e+00 -1.666666666665000e-01
-5.000000000000000e-01 2.791666666665625e+00 -1.666666666665000e-01
-5.000000000000000e-01 2.791666666665625e+00 1.666666666665000e-01
-1.000000000000000e+00 2.770833333332031e+00 1.666666666665001e-01
-1.000000000000000e+00 2.770833333332031e+00 -1.666666666665000e-01
-1.500000000000000e+00 2.750000000000000e+00 -2.428612866367530e-17
-5.000000000000000e-01 2.791666666665625e+00 -2.688821387764051e-17
-1.000000000000000e+00 3.000000000000000e+00 -2.428612866367530e-17
-1.000000000000000e+00 2.541666666665625e+00 -2.645453300864631e-17
-1.000000000000000e+00 2.770833333332031e+00 -2.222614453595284e-17
-1.500000000000000e+00 3.000000000000000e+00 -1.666666666665000e-01
-1.500000000000000e+00 3.000000000000000e+00 -5.000000000000000e-01
-5.000000000000000e-01 3.000000000000000e+00 -5.000000000000000e-01
-5.000000000000000e-01 3.000000000000000e+00 -1.666666666665000e-01
-1.500000000000000e+00 2.500000000000000e+00 -1.666666666665000e-01
-1.500000000000000e+00 2.500000000000000e+00 -5.000000000000000e-01
-5.000000000000000e-01 2.583333333332500e+00 -5.000000000000000e-01
-5.000000000000000e-01 2.583333333332500e+00 -1.666666666665000e-01
-1.500000000000000e+00 3.000000000000000e+00 -3.333333333331250e-01
-1.000000000000000e+00 3.000000000000000e+00 -5.000000000000000e-01
-5.000000000000000e-01 3.000000000000001e+00 -3.333333333331250e-01
-1.000000000000000e+00 3.000000000000000e+00 -1.666666666665000e-01
-1.500000000000000e+00 2.500000000000000e+00 -3.333333333331250e-01
-1.000000000000000e+00 2.541666666665625e+00 -5.000000000000000e-01
-4.999999999999999e-01 2.583333333332500e+00 -3.333333333331250e-01
-1.000000000000000e+00 2.541666666665625e+00 -1.666666666665000e-01
-1.500000000000000e+00 2.750000000000000e+00 -1.666666666665000e-01
-1.500000000000000e+00 2.750000000000000e+00 -5.000000000000000e-01
-5.000000000000000e-01 2.791666666665625e+00 -5.000000000000000e-01
-5.000000000000000e-01 2.791666666665625e+00 -1.666666666665000e-01
-1.000000000000000e+00 2.770833333332031e+00 -1.666666666665000e-01
-1.000000000000000e+00 2.770833333332031e+00 -5.000000000000000e-01
-1.500000000000000e+00 2.750000000000000e+00 -3.333333333331250e-01
-5.000000000000000e-01 2.791666666665626e+00 -3.333333333331250e-01
-1.000000000000000e+00 3.000000000000000e+00 -3.333333333331250e-01
-1.000000000000000e+00 2.541666666665625e+00 -3.333333333331250e-01
-1.000000000000000e+00 2.770833333332031e+00 -3.333333333331249e-01
-5.000000000000000e-01 3.000000000000000e+00 5.000000000000000e-01
-5.000000000000000e-01 3.000000000000000e+00 1.666666666665000e-01
4.999999999999999e-01 3.000000000000000e+00 1.666666666665000e-01
4.999999999999999e-01 3.000000000000000e+00 5.000000000000000e-01
-5.000000000000000e-01 2.583333333332500e+00 5.000000000000000e-01
-5.000000000000000e-01 2.583333333332500e+00 1.666666666665000e-01
4.999999999999999e-01 2.666666666667500e+00 1.666666666665000e-01
4.999999999999999e-01 2.666666666667500e+00 5.000000000000000e-01
-5.000000000000000e-01 3.000000000000000e+00 3.333333333331250e-01
8.326672684688674e-17 3.000000000000000e+00 1.666666666665000e-01
4.999999999999999e-01 3.000000000000000e+00 3.333333333331250e-01
8.326672684688674e-17 3.000000000000000e+00 5.000000000000001e-01
-5.000000000000000e-01 2.583333333332500e+00 3.333333333331250e-01
9.714451465470120e-17 2.625000000000000e+00 1.666666666665000e-01
4.999999999999999e-01 2.666666666667500e+00 3.333333333331250e-01
8.326672684688674e-17 2.625000000000000e+00 5.000000000000001e-01
-5.000000000000000e-01 2.791666666665625e+00 5.000000000000000e-01
-5.000000000000000e-01 2.791666666665625e+00 1.666666666665000e-01
4.999999999999999e-01 2.833333333334375e+00 1.666666666665000e-01
4.999999999999999e-01 2.833333333334375e+00 5.000000000000000e-01
6.591949208711867e-17 2.812500000000000e+00 5.000000000000001e-01
6.765421556309548e-17 2.812500000000000e+00 1.666666666665000e-01
-5.000000000000000e-01 2.791666666665625e+00 3.333333333331250e-01
4.999999999999999e-01 2.833333333334375e+00 3.333333333331250e-01
7.632783294297951e-17 3.000000000000000e+00 3.333333333331251e-01
7.285838599102590e-17 2.625000000000000e+00 3.333333333331250e-01
6.158268339717665e-17 2.812500000000000e+00 3.333333333331251e-01
-5.000000000000000e-01 3.000000000000000e+00 1.666666666665000e-01
-5.000000000000000e-01 3.000000000000000e+00 -1.666666666665000e-01
4.999999999999999e-01 3.000000000000000e+00 -1.666666666665000e-01
4.999999999999999e-01 3.000000000000000e+00 1.666666666665000e-01
-5.000000000000000e-01 2.583333333332500e+00 1.666666666665000e-01
-5.000000000000000e-01 2.583333333332500e+00 -1.666666666665000e-01
4.999999999999999e-01 2.666666666667500e+00 -1.666666666665000e-01
4.999999999999999e-01 2.666666666667500e+00 1.666666666665000e-01
-5.000000000000001e-01 3.000000000000000e+00 -2.775557561562891e-17
6.938893903907228e-17 3.000000000000000e+00 -1.666666666665000e-01
4.999999999999999e-01 3.000000000000000e+00 -2.428612866367530e-17
8.326672684688674e-17 3.000000000000000e+00 1.666666666665000e-01
-5.000000000000000e-01 2.583333333332500e+00 -3.469446951953614e-17
7.632783294297951e-17 2.625000000000000e+00 -1.666666666665000e-01
4.999999999999999e-01 2.666666666667500e+00 -2.428612866367530e-17
9.714451465470120e-17 2.625000000000000e+00 1.666666666665000e-01
-5.000000000000000e-01 2.791666666665625e+00 1.666666666665000e-01
-5.000000000000000e-01 2.791666666665625e+00 -1.666666666665000e-01
4.999999999999999e-01 2.833333333334375e+00 -1.666666666665000e-01
4.999999999999999e-01 2.833333333334375e+00 1.666666666665000e-01
6.765421556309548e-17 2.812500000000000e+00 1.666666666665000e-01
7.112366251504909e-17 2.812500000000000e+00 -1.666666666665000e-01
-5.000000000000000e-01 2.791666666665625e+00 -2.688821387764051e-17
5.000000000000000e-01 2.833333333334375e+00 -2.385244779468110e-17
9.367506770274758e-17 3.000000000000000e+00 -2.775557561562891e-17
8.847089727481716e-17 2.625000000000000e+00 -2.775557561562891e-17
8.630249292984615e-17 2.812500000000000e+00 -2.602085213965211e-17
-5.000000000000000e-01 3.000000000000000e+00 -1.666666666665000e-01
-5.000000000000000e-01 3.000000000000000e+00 -5.000000000000000e-01
4.999999999999999e-01 3.000000000000000e+00 -5.000000000000000e-01
4.999999999999999e-01 3.000000000000000e+00 -1.666666666665000e-01
-5.000000000000000e-01 2.583333333332500e+00 -1.666666666665000e-01
-5.000000000000000e-01 2.583333333332500e+00 -5.000000000000000e-01
[...]
  <PointData>
        <DataArray type="Float64" Name="displacement" NumberOfComponents="3" format="ascii">
0.000000000000000e+00 -3.065968752188609e-02 3.026195970251964e-03
0.000000000000000e+00 -3.065968752188612e-02 2.017463980167466e-03
3.026195970253253e-03 -3.065968752188697e-02 2.017463980167491e-03
3.026195970253194e-03 -3.065968752188689e-02 3.026195970252011e-03
0.000000000000000e+00 -2.558261939903284e-02 3.026195970252032e-03
0.000000000000000e+00 -2.558261939903282e-02 2.017463980167469e-03
3.026195970252574e-03 -2.642879741950070e-02 2.017463980167575e-03
3.026195970252501e-03 -2.642879741950064e-02 3.026195970252140e-03
0.000000000000000e+00 -3.065968752188612e-02 2.521829975209342e-03
1.513097985126626e-03 -3.065968752188630e-02 2.017463980167459e-03
3.026195970253220e-03 -3.065968752188693e-02 2.521829975209369e-03
1.513097985126597e-03 -3.065968752188625e-02 3.026195970251974e-03
0.000000000000000e+00 -2.558261939903282e-02 2.521829975209365e-03
1.513097985126244e-03 -2.600570840926014e-02 2.017463980167504e-03
3.026195970252540e-03 -2.642879741950068e-02 2.521829975209478e-03
1.513097985126205e-03 -2.600570840926014e-02 3.026195970252073e-03
0.000000000000000e+00 -2.812115346045943e-02 3.026195970252026e-03
0.000000000000000e+00 -2.812115346045945e-02 2.017463980167485e-03
3.026195970252906e-03 -2.854424247068749e-02 2.017463980167538e-03
3.026195970252850e-03 -2.854424247068741e-02 3.026195970252066e-03
1.513097985126404e-03 -2.833269796556523e-02 3.026195970252021e-03
1.513097985126434e-03 -2.833269796556528e-02 2.017463980167494e-03
0.000000000000000e+00 -2.812115346045945e-02 2.521829975209376e-03
3.026195970252876e-03 -2.854424247068746e-02 2.521829975209425e-03
1.513097985126608e-03 -3.065968752188628e-02 2.521829975209334e-03
1.513097985126226e-03 -2.600570840926012e-02 2.521829975209406e-03
1.513097985126417e-03 -2.833269796556526e-02 2.521829975209378e-03
0.000000000000000e+00 -3.065968752188612e-02 2.017463980167466e-03
0.000000000000000e+00 -3.065968752188614e-02 1.008731990084469e-03
3.026195970253307e-03 -3.065968752188702e-02 1.008731990084500e-03
3.026195970253253e-03 -3.065968752188697e-02 2.017463980167491e-03
0.000000000000000e+00 -2.558261939903282e-02 2.017463980167469e-03
0.000000000000000e+00 -2.558261939903287e-02 1.008731990084469e-03
3.026195970252623e-03 -2.642879741950075e-02 1.008731990084536e-03
3.026195970252574e-03 -2.642879741950070e-02 2.017463980167575e-03
0.000000000000000e+00 -3.065968752188613e-02 1.513097985125964e-03
1.513097985126653e-03 -3.065968752188633e-02 1.008731990084476e-03
3.026195970253285e-03 -3.065968752188700e-02 1.513097985125996e-03
1.513097985126626e-03 -3.065968752188630e-02 2.017463980167459e-03
0.000000000000000e+00 -2.558261939903284e-02 1.513097985125964e-03
1.513097985126267e-03 -2.600570840926018e-02 1.008731990084490e-03
3.026195970252602e-03 -2.642879741950073e-02 1.513097985126054e-03
1.513097985126244e-03 -2.600570840926014e-02 2.017463980167504e-03
0.000000000000000e+00 -2.812115346045945e-02 2.017463980167485e-03
0.000000000000000e+00 -2.812115346045948e-02 1.008731990084482e-03
3.026195970252956e-03 -2.854424247068754e-02 1.008731990084522e-03
3.026195970252906e-03 -2.854424247068749e-02 2.017463980167538e-03
1.513097985126434e-03 -2.833269796556528e-02 2.017463980167494e-03
1.513097985126458e-03 -2.833269796556529e-02 1.008731990084492e-03
0.000000000000000e+00 -2.812115346045947e-02 1.513097985125979e-03
3.026195970252935e-03 -2.854424247068751e-02 1.513097985126029e-03
1.513097985126644e-03 -3.065968752188632e-02 1.513097985125967e-03
1.513097985126257e-03 -2.600570840926016e-02 1.513097985125991e-03
1.513097985126449e-03 -2.833269796556529e-02 1.513097985125990e-03
0.000000000000000e+00 -3.065968752188614e-02 1.008731990084469e-03
0.000000000000000e+00 -3.065968752188618e-02 0.000000000000000e+00
3.026195970253325e-03 -3.065968752188703e-02 0.000000000000000e+00
3.026195970253307e-03 -3.065968752188702e-02 1.008731990084500e-03
0.000000000000000e+00 -2.558261939903287e-02 1.008731990084469e-03
0.000000000000000e+00 -2.558261939903288e-02 0.000000000000000e+00
3.026195970252642e-03 -2.642879741950077e-02 0.000000000000000e+00
3.026195970252623e-03 -2.642879741950075e-02 1.008731990084536e-03
0.000000000000000e+00 -3.065968752188617e-02 5.043659950426048e-04
1.513097985126659e-03 -3.065968752188635e-02 0.000000000000000e+00
3.026195970253321e-03 -3.065968752188703e-02 5.043659950426280e-04
1.513097985126653e-03 -3.065968752188633e-02 1.008731990084476e-03
0.000000000000000e+00 -2.558261939903289e-02 5.043659950426074e-04
1.513097985126277e-03 -2.600570840926020e-02 0.000000000000000e+00
3.026195970252637e-03 -2.642879741950077e-02 5.043659950426436e-04
1.513097985126267e-03 -2.600570840926018e-02 1.008731990084490e-03
0.000000000000000e+00 -2.812115346045948e-02 1.008731990084482e-03
0.000000000000000e+00 -2.812115346045950e-02 0.000000000000000e+00
3.026195970252974e-03 -2.854424247068755e-02 0.000000000000000e+00
3.026195970252956e-03 -2.854424247068754e-02 1.008731990084522e-03
1.513097985126458e-03 -2.833269796556529e-02 1.008731990084492e-03
1.513097985126466e-03 -2.833269796556532e-02 0.000000000000000e+00
0.000000000000000e+00 -2.812115346045949e-02 5.043659950426161e-04
3.026195970252969e-03 -2.854424247068755e-02 5.043659950426387e-04
1.513097985126658e-03 -3.065968752188635e-02 5.043659950426125e-04
1.513097985126274e-03 -2.600570840926019e-02 5.043659950426194e-04
1.513097985126463e-03 -2.833269796556531e-02 5.043659950426221e-04
3.026195970253194e-03 -3.065968752188689e-02 3.026195970252011e-03
3.026195970253253e-03 -3.065968752188697e-02 2.017463980167491e-03
6.052391940506078e-03 -3.065968752188925e-02 2.017463980167618e-03
6.052391940505981e-03 -3.065968752188907e-02 3.026195970252179e-03
3.026195970252501e-03 -2.642879741950064e-02 3.026195970252140e-03
3.026195970252574e-03 -2.642879741950070e-02 2.017463980167575e-03
6.052391940505329e-03 -2.727497543999553e-02 2.017463980167795e-03
6.052391940505223e-03 -2.727497543999533e-02 3.026195970252365e-03
3.026195970253220e-03 -3.065968752188693e-02 2.521829975209369e-03
4.539293955379774e-03 -3.065968752188800e-02 2.017463980167549e-03
6.052391940506030e-03 -3.065968752188917e-02 2.521829975209521e-03
4.539293955379691e-03 -3.065968752188787e-02 3.026195970252080e-03
3.026195970252540e-03 -2.642879741950068e-02 2.521829975209478e-03
4.539293955378950e-03 -2.685188642974801e-02 2.017463980167675e-03
6.052391940505283e-03 -2.727497543999545e-02 2.521829975209714e-03
4.539293955378854e-03 -2.685188642974788e-02 3.026195970252237e-03
3.026195970252850e-03 -2.854424247068741e-02 3.026195970252066e-03
3.026195970252906e-03 -2.854424247068749e-02 2.017463980167538e-03
6.052391940505686e-03 -2.896733148094874e-02 2.017463980167695e-03
6.052391940505595e-03 -2.896733148094856e-02 3.026195970252267e-03
4.539293955379270e-03 -2.875578697581789e-02 3.026195970252151e-03
4.539293955379348e-03 -2.875578697581801e-02 2.017463980167608e-03
3.026195970252876e-03 -2.854424247068746e-02 2.521829975209425e-03
6.052391940505639e-03 -2.896733148094865e-02 2.521829975209603e-03
4.539293955379731e-03 -3.065968752188794e-02 2.521829975209436e-03
4.539293955378904e-03 -2.685188642974796e-02 2.521829975209580e-03
4.539293955379308e-03 -2.875578697581795e-02 2.521829975209502e-03
3.026195970253253e-03 -3.065968752188697e-02 2.017463980167491e-03
3.026195970253307e-03 -3.065968752188702e-02 1.008731990084500e-03
6.052391940506158e-03 -3.065968752188936e-02 1.008731990084572e-03
6.052391940506078e-03 -3.065968752188925e-02 2.017463980167618e-03
3.026195970252574e-03 -2.642879741950070e-02 2.017463980167575e-03
3.026195970252623e-03 -2.642879741950075e-02 1.008731990084536e-03
6.052391940505398e-03 -2.727497543999562e-02 1.008731990084665e-03
6.052391940505329e-03 -2.727497543999553e-02 2.017463980167795e-03
3.026195970253285e-03 -3.065968752188700e-02 1.513097985125996e-03
4.539293955379847e-03 -3.065968752188807e-02 1.008731990084534e-03
6.052391940506123e-03 -3.065968752188932e-02 1.513097985126094e-03
4.539293955379774e-03 -3.065968752188800e-02 2.017463980167549e-03
3.026195970252602e-03 -2.642879741950073e-02 1.513097985126054e-03
4.539293955379018e-03 -2.685188642974808e-02 1.008731990084598e-03
6.052391940505367e-03 -2.727497543999559e-02 1.513097985126236e-03
4.539293955378950e-03 -2.685188642974801e-02 2.017463980167675e-03
3.026195970252906e-03 -2.854424247068749e-02 2.017463980167538e-03
3.026195970252956e-03 -2.854424247068754e-02 1.008731990084522e-03
6.052391940505759e-03 -2.896733148094885e-02 1.008731990084619e-03
6.052391940505686e-03 -2.896733148094874e-02 2.017463980167695e-03
4.539293955379348e-03 -2.875578697581801e-02 2.017463980167608e-03
4.539293955379414e-03 -2.875578697581808e-02 1.008731990084566e-03
3.026195970252935e-03 -2.854424247068751e-02 1.513097985126029e-03
6.052391940505727e-03 -2.896733148094880e-02 1.513097985126161e-03
4.539293955379814e-03 -3.065968752188804e-02 1.513097985126041e-03
4.539293955378988e-03 -2.685188642974804e-02 1.513097985126141e-03
4.539293955379385e-03 -2.875578697581805e-02 1.513097985126088e-03
3.026195970253307e-03 -3.065968752188702e-02 1.008731990084500e-03
3.026195970253325e-03 -3.065968752188703e-02 0.000000000000000e+00
6.052391940506188e-03 -3.065968752188941e-02 0.000000000000000e+00
6.052391940506158e-03 -3.065968752188936e-02 1.008731990084572e-03
3.026195970252623e-03 -2.642879741950075e-02 1.008731990084536e-03
3.026195970252642e-03 -2.642879741950077e-02 0.000000000000000e+00
6.052391940505429e-03 -2.727497543999565e-02 0.000000000000000e+00
6.052391940505398e-03 -2.727497543999562e-02 1.008731990084665e-03
3.026195970253321e-03 -3.065968752188703e-02 5.043659950426280e-04
4.539293955379877e-03 -3.065968752188810e-02 0.000000000000000e+00
6.052391940506182e-03 -3.065968752188940e-02 5.043659950426699e-04
4.539293955379847e-03 -3.065968752188807e-02 1.008731990084534e-03
3.026195970252637e-03 -2.642879741950077e-02 5.043659950426436e-04
4.539293955379044e-03 -2.685188642974810e-02 0.000000000000000e+00
6.052391940505421e-03 -2.727497543999564e-02 5.043659950427115e-04
4.539293955379018e-03 -2.685188642974808e-02 1.008731990084598e-03
3.026195970252956e-03 -2.854424247068754e-02 1.008731990084522e-03
3.026195970252974e-03 -2.854424247068755e-02 0.000000000000000e+00
6.052391940505788e-03 -2.896733148094888e-02 0.000000000000000e+00
6.052391940505759e-03 -2.896733148094885e-02 1.008731990084619e-03
4.539293955379414e-03 -2.875578697581808e-02 1.008731990084566e-03
4.539293955379442e-03 -2.875578697581811e-02 0.000000000000000e+00
3.026195970252969e-03 -2.854424247068755e-02 5.043659950426387e-04
6.052391940505780e-03 -2.896733148094887e-02 5.043659950426910e-04
4.539293955379868e-03 -3.065968752188809e-02 5.043659950426480e-04
4.539293955379037e-03 -2.685188642974809e-02 5.043659950426755e-04
4.539293955379435e-03 -2.875578697581810e-02 5.043659950426625e-04
6.052391940505981e-03 -3.065968752188907e-02 3.026195970252179e-03
6.052391940506078e-03 -3.065968752188925e-02 2.017463980167618e-03
9.078587910758173e-03 -3.065968752189108e-02 2.017463980167817e-03
9.078587910758096e-03 -3.065968752189082e-02 3.026195970252410e-03
6.052391940505223e-03 -2.727497543999533e-02 3.026195970252365e-03
6.052391940505329e-03 -2.727497543999553e-02 2.017463980167795e-03
9.078587910757909e-03 -2.812115346046446e-02 2.017463980168001e-03
9.078587910757833e-03 -2.812115346046420e-02 3.026195970252623e-03
6.052391940506030e-03 -3.065968752188917e-02 2.521829975209521e-03
7.565489925632202e-03 -3.065968752189040e-02 2.017463980167706e-03
9.078587910758136e-03 -3.065968752189097e-02 2.521829975209739e-03
7.565489925632106e-03 -3.065968752189016e-02 3.026195970252294e-03
6.052391940505283e-03 -2.727497543999545e-02 2.521829975209714e-03
7.565489925631667e-03 -2.769806445023659e-02 2.017463980167912e-03
9.078587910757871e-03 -2.812115346046436e-02 2.521829975209951e-03
7.565489925631566e-03 -2.769806445023634e-02 3.026195970252503e-03
6.052391940505595e-03 -2.896733148094856e-02 3.026195970252267e-03
6.052391940505686e-03 -2.896733148094874e-02 2.017463980167695e-03
9.078587910758051e-03 -2.939042049117778e-02 2.017463980167900e-03
9.078587910757979e-03 -2.939042049117752e-02 3.026195970252519e-03
7.565489925631831e-03 -2.917887598607119e-02 3.026195970252396e-03
7.565489925631919e-03 -2.917887598607142e-02 2.017463980167794e-03
6.052391940505639e-03 -2.896733148094865e-02 2.521829975209603e-03
9.078587910758017e-03 -2.939042049117767e-02 2.521829975209837e-03
7.565489925632154e-03 -3.065968752189029e-02 2.521829975209623e-03
7.565489925631620e-03 -2.769806445023648e-02 2.521829975209848e-03
7.565489925631877e-03 -2.917887598607132e-02 2.521829975209718e-03
6.052391940506078e-03 -3.065968752188925e-02 2.017463980167618e-03
6.052391940506158e-03 -3.065968752188936e-02 1.008731990084572e-03
9.078587910758218e-03 -3.065968752189122e-02 1.008731990084683e-03
9.078587910758173e-03 -3.065968752189108e-02 2.017463980167817e-03
6.052391940505329e-03 -2.727497543999553e-02 2.017463980167795e-03
6.052391940505398e-03 -2.727497543999562e-02 1.008731990084665e-03
9.078587910757968e-03 -2.812115346046457e-02 1.008731990084768e-03
9.078587910757909e-03 -2.812115346046446e-02 2.017463980168001e-03
6.052391940506123e-03 -3.065968752188932e-02 1.513097985126094e-03
7.565489925632273e-03 -3.065968752189054e-02 1.008731990084621e-03
9.078587910758202e-03 -3.065968752189117e-02 1.513097985126261e-03
7.565489925632202e-03 -3.065968752189040e-02 2.017463980167706e-03
6.052391940505367e-03 -2.727497543999559e-02 1.513097985126236e-03
7.565489925631730e-03 -2.769806445023669e-02 1.008731990084727e-03
9.078587910757944e-03 -2.812115346046453e-02 1.513097985126398e-03
7.565489925631667e-03 -2.769806445023659e-02 2.017463980167912e-03
6.052391940505686e-03 -2.896733148094874e-02 2.017463980167695e-03
6.052391940505759e-03 -2.896733148094885e-02 1.008731990084619e-03
9.078587910758105e-03 -2.939042049117791e-02 1.008731990084718e-03
9.078587910758051e-03 -2.939042049117778e-02 2.017463980167900e-03
7.565489925631919e-03 -2.917887598607142e-02 2.017463980167794e-03
7.565489925631987e-03 -2.917887598607155e-02 1.008731990084671e-03
6.052391940505727e-03 -2.896733148094880e-02 1.513097985126161e-03
9.078587910758086e-03 -2.939042049117786e-02 1.513097985126322e-03
7.565489925632241e-03 -3.065968752189048e-02 1.513097985126164e-03
7.565489925631699e-03 -2.769806445023664e-02 1.513097985126326e-03
7.565489925631960e-03 -2.917887598607150e-02 1.513097985126239e-03
6.052391940506158e-03 -3.065968752188936e-02 1.008731990084572e-03
6.052391940506188e-03 -3.065968752188941e-02 0.000000000000000e+00
9.078587910758228e-03 -3.065968752189125e-02 0.000000000000000e+00
9.078587910758218e-03 -3.065968752189122e-02 1.008731990084683e-03
6.052391940505398e-03 -2.727497543999562e-02 1.008731990084665e-03
6.052391940505429e-03 -2.727497543999565e-02 0.000000000000000e+00
9.078587910757985e-03 -2.812115346046462e-02 0.000000000000000e+00
9.078587910757968e-03 -2.812115346046457e-02 1.008731990084768e-03
6.052391940506182e-03 -3.065968752188940e-02 5.043659950426699e-04
7.565489925632295e-03 -3.065968752189060e-02 0.000000000000000e+00
9.078587910758228e-03 -3.065968752189125e-02 5.043659950427181e-04
7.565489925632273e-03 -3.065968752189054e-02 1.008731990084621e-03
6.052391940505421e-03 -2.727497543999564e-02 5.043659950427115e-04
7.565489925631758e-03 -2.769806445023674e-02 0.000000000000000e+00
9.078587910757985e-03 -2.812115346046460e-02 5.043659950427544e-04
7.565489925631730e-03 -2.769806445023669e-02 1.008731990084727e-03
6.052391940505759e-03 -2.896733148094885e-02 1.008731990084619e-03
6.052391940505788e-03 -2.896733148094888e-02 0.000000000000000e+00
9.078587910758117e-03 -2.939042049117796e-02 0.000000000000000e+00
9.078587910758105e-03 -2.939042049117791e-02 1.008731990084718e-03
7.565489925631987e-03 -2.917887598607155e-02 1.008731990084671e-03
7.565489925632015e-03 -2.917887598607160e-02 0.000000000000000e+00
6.052391940505780e-03 -2.896733148094887e-02 5.043659950426910e-04
9.078587910758119e-03 -2.939042049117794e-02 5.043659950427307e-04
7.565489925632292e-03 -3.065968752189058e-02 5.043659950426932e-04
7.565489925631750e-03 -2.769806445023672e-02 5.043659950427412e-04
7.565489925632007e-03 -2.917887598607159e-02 5.043659950427163e-04
0.000000000000000e+00 -2.558261939903284e-02 3.026195970252032e-03
0.000000000000000e+00 -2.558261939903282e-02 2.017463980167469e-03
3.026195970252574e-03 -2.642879741950070e-02 2.017463980167575e-03
3.026195970252501e-03 -2.642879741950064e-02 3.026195970252140e-03
0.000000000000000e+00 -2.050555127617975e-02 3.026195970251703e-03
0.000000000000000e+00 -2.050555127617979e-02 2.017463980167299e-03
3.026195970251924e-03 -2.219790731711448e-02 2.017463980167555e-03
3.026195970251858e-03 -2.219790731711447e-02 3.026195970252112e-03
0.000000000000000e+00 -2.558261939903282e-02 2.521829975209365e-03
1.513097985126244e-03 -2.600570840926014e-02 2.017463980167504e-03
3.026195970252540e-03 -2.642879741950068e-02 2.521829975209478e-03
1.513097985126205e-03 -2.600570840926014e-02 3.026195970252073e-03
0.000000000000000e+00 -2.050555127617974e-02 2.521829975209124e-03
1.513097985125924e-03 -2.135172929663408e-02 2.017463980167339e-03
3.026195970251895e-03 -2.219790731711445e-02 2.521829975209447e-03
1.513097985125892e-03 -2.135172929663410e-02 3.026195970251818e-03
0.000000000000000e+00 -2.304408533760629e-02 3.026195970251938e-03
0.000000000000000e+00 -2.304408533760625e-02 2.017463980167410e-03
3.026195970252249e-03 -2.431335236831392e-02 2.017463980167587e-03
3.026195970252165e-03 -2.431335236831390e-02 3.026195970252175e-03
1.513097985126025e-03 -2.367871885295506e-02 3.026195970252036e-03
1.513097985126069e-03 -2.367871885295502e-02 2.017463980167462e-03
0.000000000000000e+00 -2.304408533760624e-02 2.521829975209288e-03
3.026195970252213e-03 -2.431335236831390e-02 2.521829975209496e-03
1.513097985126226e-03 -2.600570840926012e-02 2.521829975209406e-03
1.513097985125908e-03 -2.135172929663405e-02 2.521829975209180e-03
1.513097985126051e-03 -2.367871885295500e-02 2.521829975209357e-03
0.000000000000000e+00 -2.558261939903282e-02 2.017463980167469e-03
0.000000000000000e+00 -2.558261939903287e-02 1.008731990084469e-03
3.026195970252623e-03 -2.642879741950075e-02 1.008731990084536e-03
3.026195970252574e-03 -2.642879741950070e-02 2.017463980167575e-03
0.000000000000000e+00 -2.050555127617979e-02 2.017463980167299e-03
0.000000000000000e+00 -2.050555127617987e-02 1.008731990084406e-03
3.026195970251983e-03 -2.219790731711455e-02 1.008731990084537e-03
3.026195970251924e-03 -2.219790731711448e-02 2.017463980167555e-03
0.000000000000000e+00 -2.558261939903284e-02 1.513097985125964e-03
1.513097985126267e-03 -2.600570840926018e-02 1.008731990084490e-03
3.026195970252602e-03 -2.642879741950073e-02 1.513097985126054e-03
1.513097985126244e-03 -2.600570840926014e-02 2.017463980167504e-03
0.000000000000000e+00 -2.050555127617986e-02 1.513097985125851e-03
1.513097985125959e-03 -2.135172929663416e-02 1.008731990084433e-03
3.026195970251951e-03 -2.219790731711453e-02 1.513097985126048e-03
1.513097985125924e-03 -2.135172929663408e-02 2.017463980167339e-03
0.000000000000000e+00 -2.304408533760625e-02 2.017463980167410e-03
0.000000000000000e+00 -2.304408533760632e-02 1.008731990084440e-03
3.026195970252302e-03 -2.431335236831398e-02 1.008731990084541e-03
3.026195970252249e-03 -2.431335236831392e-02 2.017463980167587e-03
1.513097985126069e-03 -2.367871885295502e-02 2.017463980167462e-03
1.513097985126096e-03 -2.367871885295509e-02 1.008731990084470e-03
0.000000000000000e+00 -2.304408533760629e-02 1.513097985125922e-03
3.026195970252278e-03 -2.431335236831396e-02 1.513097985126063e-03
1.513097985126257e-03 -2.600570840926016e-02 1.513097985125991e-03
1.513097985125941e-03 -2.135172929663415e-02 1.513097985125893e-03